rm: cannot remove `energy.txt': No such file or directory
 running on   16 total cores
 distrk:  each k-point on   16 cores,    1 groups
 distr:  one band on    1 cores,   16 groups
 using from now: INCAR     
 vasp.5.4.1 24Jun15 (build May 02 2016 14:41:14) complex                        
  
 POSCAR found type information on POSCAR  Si
 POSCAR found :  1 types and       2 ions
 scaLAPACK will be used

 ----------------------------------------------------------------------------- 
|                                                                             |
|           W    W    AA    RRRRR   N    N  II  N    N   GGGG   !!!           |
|           W    W   A  A   R    R  NN   N  II  NN   N  G    G  !!!           |
|           W    W  A    A  R    R  N N  N  II  N N  N  G       !!!           |
|           W WW W  AAAAAA  RRRRR   N  N N  II  N  N N  G  GGG   !            |
|           WW  WW  A    A  R   R   N   NN  II  N   NN  G    G                |
|           W    W  A    A  R    R  N    N  II  N    N   GGGG   !!!           |
|                                                                             |
|      For optimal performance we recommend to set                            |
|        NCORE= 4 - approx SQRT( number of cores)                             |
|      NCORE specifies how many cores store one orbital (NPAR=cpu/NCORE).     |
|      This setting can  greatly improve the performance of VASP for DFT.     |
|      The default, NPAR=number of cores might be grossly inefficient         |
|      on modern multi-core architectures or massively parallel machines.     |
|      Do your own testing !!!!                                               |
|      Unfortunately you need to use the default for GW and RPA calculations. |
|      (for HF NCORE is supported but not extensively tested yet)             |
|                                                                             |
 ----------------------------------------------------------------------------- 

 LDA part: xc-table for Pade appr. of Perdew
 POSCAR, INCAR and KPOINTS ok, starting setup
 WARNING: small aliasing (wrap around) errors must be expected
 FFT: planning ...
 WAVECAR not read
 entering main loop
       N       E                     dE             d eps       ncg     rms          rms(c)
DAV:   1    -0.966097732044E+01   -0.96610E+01   -0.12338E+03  4928   0.100E+02
DAV:   2    -0.105164909220E+02   -0.85551E+00   -0.85551E+00  5136   0.105E+01
DAV:   3    -0.105172502595E+02   -0.75934E-03   -0.75934E-03  5584   0.311E-01
DAV:   4    -0.105172504368E+02   -0.17733E-06   -0.17733E-06  5376   0.326E-03
DAV:   5    -0.105172504368E+02   -0.27853E-11   -0.22829E-11  5472   0.117E-05    0.248E+00
DAV:   6    -0.104680967094E+02    0.49154E-01   -0.21556E-02  4736   0.357E-01    0.151E+00
DAV:   7    -0.104367311968E+02    0.31366E-01   -0.54914E-02  5264   0.623E-01    0.964E-02
DAV:   8    -0.104378350997E+02   -0.11039E-02   -0.15200E-03  4704   0.117E-01    0.280E-02
DAV:   9    -0.104379916543E+02   -0.15655E-03   -0.18170E-04  5520   0.457E-02    0.122E-02
DAV:  10    -0.104379973174E+02   -0.56631E-05   -0.18076E-05  4928   0.144E-02    0.160E-03
DAV:  11    -0.104379962776E+02    0.10398E-05   -0.35090E-07  5120   0.155E-03    0.509E-04
DAV:  12    -0.104379962470E+02    0.30583E-07   -0.25023E-08  2432   0.605E-04
   1 F= -.10437996E+02 E0= -.10437996E+02  d E =-.133533E-11
 writing wavefunctions
 running on   16 total cores
 distrk:  each k-point on   16 cores,    1 groups
 distr:  one band on    1 cores,   16 groups
 using from now: INCAR     
 vasp.5.4.1 24Jun15 (build May 02 2016 14:41:14) complex                        
  
 POSCAR found type information on POSCAR  Si
 POSCAR found :  1 types and       2 ions
 scaLAPACK will be used

 ----------------------------------------------------------------------------- 
|                                                                             |
|           W    W    AA    RRRRR   N    N  II  N    N   GGGG   !!!           |
|           W    W   A  A   R    R  NN   N  II  NN   N  G    G  !!!           |
|           W    W  A    A  R    R  N N  N  II  N N  N  G       !!!           |
|           W WW W  AAAAAA  RRRRR   N  N N  II  N  N N  G  GGG   !            |
|           WW  WW  A    A  R   R   N   NN  II  N   NN  G    G                |
|           W    W  A    A  R    R  N    N  II  N    N   GGGG   !!!           |
|                                                                             |
|      For optimal performance we recommend to set                            |
|        NCORE= 4 - approx SQRT( number of cores)                             |
|      NCORE specifies how many cores store one orbital (NPAR=cpu/NCORE).     |
|      This setting can  greatly improve the performance of VASP for DFT.     |
|      The default, NPAR=number of cores might be grossly inefficient         |
|      on modern multi-core architectures or massively parallel machines.     |
|      Do your own testing !!!!                                               |
|      Unfortunately you need to use the default for GW and RPA calculations. |
|      (for HF NCORE is supported but not extensively tested yet)             |
|                                                                             |
 ----------------------------------------------------------------------------- 

 LDA part: xc-table for Pade appr. of Perdew
 POSCAR, INCAR and KPOINTS ok, starting setup
 WARNING: small aliasing (wrap around) errors must be expected
 FFT: planning ...
 WAVECAR not read
 entering main loop
       N       E                     dE             d eps       ncg     rms          rms(c)
DAV:   1    -0.942252296718E+01   -0.94225E+01   -0.12773E+03  4880   0.108E+02
DAV:   2    -0.105439117126E+02   -0.11214E+01   -0.11214E+01  5280   0.119E+01
DAV:   3    -0.105453206219E+02   -0.14089E-02   -0.14089E-02  5392   0.421E-01
DAV:   4    -0.105453211637E+02   -0.54185E-06   -0.54183E-06  5808   0.621E-03
DAV:   5    -0.105453211637E+02   -0.11823E-10   -0.34679E-11  5216   0.147E-05    0.247E+00
DAV:   6    -0.104919796142E+02    0.53342E-01   -0.24316E-02  4784   0.383E-01    0.151E+00
DAV:   7    -0.104597809966E+02    0.32199E-01   -0.59891E-02  5360   0.656E-01    0.998E-02
DAV:   8    -0.104609868426E+02   -0.12058E-02   -0.17826E-03  4608   0.130E-01    0.275E-02
DAV:   9    -0.104611455887E+02   -0.15875E-03   -0.18575E-04  5648   0.468E-02    0.121E-02
DAV:  10    -0.104611553216E+02   -0.97328E-05   -0.20065E-05  4848   0.154E-02    0.183E-03
DAV:  11    -0.104611542293E+02    0.10922E-05   -0.52077E-07  5744   0.185E-03    0.351E-04
DAV:  12    -0.104611541458E+02    0.83526E-07   -0.31097E-08  2656   0.704E-04
   1 F= -.10461154E+02 E0= -.10461154E+02  d E =-.446041E-12
 writing wavefunctions
 running on   16 total cores
 distrk:  each k-point on   16 cores,    1 groups
 distr:  one band on    1 cores,   16 groups
 using from now: INCAR     
 vasp.5.4.1 24Jun15 (build May 02 2016 14:41:14) complex                        
  
 POSCAR found type information on POSCAR  Si
 POSCAR found :  1 types and       2 ions
 scaLAPACK will be used

 ----------------------------------------------------------------------------- 
|                                                                             |
|           W    W    AA    RRRRR   N    N  II  N    N   GGGG   !!!           |
|           W    W   A  A   R    R  NN   N  II  NN   N  G    G  !!!           |
|           W    W  A    A  R    R  N N  N  II  N N  N  G       !!!           |
|           W WW W  AAAAAA  RRRRR   N  N N  II  N  N N  G  GGG   !            |
|           WW  WW  A    A  R   R   N   NN  II  N   NN  G    G                |
|           W    W  A    A  R    R  N    N  II  N    N   GGGG   !!!           |
|                                                                             |
|      For optimal performance we recommend to set                            |
|        NCORE= 4 - approx SQRT( number of cores)                             |
|      NCORE specifies how many cores store one orbital (NPAR=cpu/NCORE).     |
|      This setting can  greatly improve the performance of VASP for DFT.     |
|      The default, NPAR=number of cores might be grossly inefficient         |
|      on modern multi-core architectures or massively parallel machines.     |
|      Do your own testing !!!!                                               |
|      Unfortunately you need to use the default for GW and RPA calculations. |
|      (for HF NCORE is supported but not extensively tested yet)             |
|                                                                             |
 ----------------------------------------------------------------------------- 

 LDA part: xc-table for Pade appr. of Perdew
 POSCAR, INCAR and KPOINTS ok, starting setup
 WARNING: small aliasing (wrap around) errors must be expected
 FFT: planning ...
 WAVECAR not read
 entering main loop
       N       E                     dE             d eps       ncg     rms          rms(c)
DAV:   1    -0.920555279303E+01   -0.92056E+01   -0.13668E+03  4736   0.116E+02
DAV:   2    -0.105459145842E+02   -0.13404E+01   -0.13403E+01  5424   0.130E+01
DAV:   3    -0.105479211159E+02   -0.20065E-02   -0.20065E-02  5008   0.521E-01
DAV:   4    -0.105479220735E+02   -0.95752E-06   -0.95750E-06  6160   0.922E-03
DAV:   5    -0.105479220735E+02   -0.16200E-10   -0.79593E-11  4944   0.248E-05    0.248E+00
DAV:   6    -0.104918157939E+02    0.56106E-01   -0.26050E-02  4768   0.401E-01    0.151E+00
DAV:   7    -0.104591676540E+02    0.32648E-01   -0.63306E-02  5504   0.682E-01    0.102E-01
DAV:   8    -0.104604392171E+02   -0.12716E-02   -0.20007E-03  4656   0.140E-01    0.272E-02
DAV:   9    -0.104605955265E+02   -0.15631E-03   -0.18247E-04  5920   0.471E-02    0.119E-02
DAV:  10    -0.104606064893E+02   -0.10963E-04   -0.20898E-05  4896   0.159E-02    0.206E-03
DAV:  11    -0.104606053058E+02    0.11835E-05   -0.69519E-07  6032   0.213E-03    0.377E-04
DAV:  12    -0.104606051876E+02    0.11828E-06   -0.34532E-08  2544   0.767E-04
   1 F= -.10460605E+02 E0= -.10460605E+02  d E =-.193659E-11
 writing wavefunctions
 running on   16 total cores
 distrk:  each k-point on   16 cores,    1 groups
 distr:  one band on    1 cores,   16 groups
 using from now: INCAR     
 vasp.5.4.1 24Jun15 (build May 02 2016 14:41:14) complex                        
  
 POSCAR found type information on POSCAR  Si
 POSCAR found :  1 types and       2 ions
 scaLAPACK will be used

 ----------------------------------------------------------------------------- 
|                                                                             |
|           W    W    AA    RRRRR   N    N  II  N    N   GGGG   !!!           |
|           W    W   A  A   R    R  NN   N  II  NN   N  G    G  !!!           |
|           W    W  A    A  R    R  N N  N  II  N N  N  G       !!!           |
|           W WW W  AAAAAA  RRRRR   N  N N  II  N  N N  G  GGG   !            |
|           WW  WW  A    A  R   R   N   NN  II  N   NN  G    G                |
|           W    W  A    A  R    R  N    N  II  N    N   GGGG   !!!           |
|                                                                             |
|      For optimal performance we recommend to set                            |
|        NCORE= 4 - approx SQRT( number of cores)                             |
|      NCORE specifies how many cores store one orbital (NPAR=cpu/NCORE).     |
|      This setting can  greatly improve the performance of VASP for DFT.     |
|      The default, NPAR=number of cores might be grossly inefficient         |
|      on modern multi-core architectures or massively parallel machines.     |
|      Do your own testing !!!!                                               |
|      Unfortunately you need to use the default for GW and RPA calculations. |
|      (for HF NCORE is supported but not extensively tested yet)             |
|                                                                             |
 ----------------------------------------------------------------------------- 

 LDA part: xc-table for Pade appr. of Perdew
 POSCAR, INCAR and KPOINTS ok, starting setup
 WARNING: small aliasing (wrap around) errors must be expected
 FFT: planning ...
 WAVECAR not read
 entering main loop
       N       E                     dE             d eps       ncg     rms          rms(c)
DAV:   1    -0.894873797950E+01   -0.89487E+01   -0.14346E+03  4592   0.125E+02
DAV:   2    -0.105492232836E+02   -0.16005E+01   -0.16005E+01  5600   0.141E+01
DAV:   3    -0.105519564800E+02   -0.27332E-02   -0.27332E-02  4848   0.611E-01
DAV:   4    -0.105519583002E+02   -0.18203E-05   -0.18203E-05  6320   0.135E-02
DAV:   5    -0.105519583002E+02   -0.22226E-10   -0.22196E-10  4768   0.399E-05    0.249E+00
DAV:   6    -0.104941859252E+02    0.57772E-01   -0.27282E-02  4976   0.416E-01    0.151E+00
DAV:   7    -0.104614533580E+02    0.32733E-01   -0.65892E-02  5456   0.703E-01    0.104E-01
DAV:   8    -0.104627753567E+02   -0.13220E-02   -0.21587E-03  4752   0.148E-01    0.273E-02
DAV:   9    -0.104629304703E+02   -0.15511E-03   -0.18266E-04  5936   0.477E-02    0.118E-02
DAV:  10    -0.104629424742E+02   -0.12004E-04   -0.21184E-05  4992   0.161E-02    0.226E-03
DAV:  11    -0.104629411457E+02    0.13285E-05   -0.86510E-07  5824   0.239E-03    0.396E-04
DAV:  12    -0.104629410091E+02    0.13663E-06   -0.37515E-08  2656   0.820E-04
   1 F= -.10462941E+02 E0= -.10462941E+02  d E =-.150172E-10
 writing wavefunctions
 running on   16 total cores
 distrk:  each k-point on   16 cores,    1 groups
 distr:  one band on    1 cores,   16 groups
 using from now: INCAR     
 vasp.5.4.1 24Jun15 (build May 02 2016 14:41:14) complex                        
  
 POSCAR found type information on POSCAR  Si
 POSCAR found :  1 types and       2 ions
 scaLAPACK will be used

 ----------------------------------------------------------------------------- 
|                                                                             |
|           W    W    AA    RRRRR   N    N  II  N    N   GGGG   !!!           |
|           W    W   A  A   R    R  NN   N  II  NN   N  G    G  !!!           |
|           W    W  A    A  R    R  N N  N  II  N N  N  G       !!!           |
|           W WW W  AAAAAA  RRRRR   N  N N  II  N  N N  G  GGG   !            |
|           WW  WW  A    A  R   R   N   NN  II  N   NN  G    G                |
|           W    W  A    A  R    R  N    N  II  N    N   GGGG   !!!           |
|                                                                             |
|      For optimal performance we recommend to set                            |
|        NCORE= 4 - approx SQRT( number of cores)                             |
|      NCORE specifies how many cores store one orbital (NPAR=cpu/NCORE).     |
|      This setting can  greatly improve the performance of VASP for DFT.     |
|      The default, NPAR=number of cores might be grossly inefficient         |
|      on modern multi-core architectures or massively parallel machines.     |
|      Do your own testing !!!!                                               |
|      Unfortunately you need to use the default for GW and RPA calculations. |
|      (for HF NCORE is supported but not extensively tested yet)             |
|                                                                             |
 ----------------------------------------------------------------------------- 

 LDA part: xc-table for Pade appr. of Perdew
 POSCAR, INCAR and KPOINTS ok, starting setup
 WARNING: small aliasing (wrap around) errors must be expected
 FFT: planning ...
 WAVECAR not read
 entering main loop
       N       E                     dE             d eps       ncg     rms          rms(c)
DAV:   1    -0.889502193507E+01   -0.88950E+01   -0.14716E+03  4688   0.133E+02
DAV:   2    -0.105559191034E+02   -0.16609E+01   -0.16609E+01  5600   0.146E+01
DAV:   3    -0.105592819444E+02   -0.33628E-02   -0.33628E-02  4912   0.677E-01
DAV:   4    -0.105592839746E+02   -0.20302E-05   -0.20302E-05  6288   0.143E-02
DAV:   5    -0.105592839746E+02   -0.44224E-10   -0.44214E-10  4736   0.535E-05    0.250E+00
DAV:   6    -0.105007212722E+02    0.58563E-01   -0.28180E-02  5136   0.429E-01    0.152E+00
DAV:   7    -0.104681839097E+02    0.32537E-01   -0.67795E-02  5520   0.721E-01    0.105E-01
DAV:   8    -0.104695380239E+02   -0.13541E-02   -0.22488E-03  4736   0.152E-01    0.274E-02
DAV:   9    -0.104696924453E+02   -0.15442E-03   -0.18276E-04  6112   0.482E-02    0.118E-02
DAV:  10    -0.104697053788E+02   -0.12933E-04   -0.21457E-05  5024   0.164E-02    0.237E-03
DAV:  11    -0.104697040086E+02    0.13701E-05   -0.96793E-07  6080   0.255E-03    0.409E-04
DAV:  12    -0.104697038402E+02    0.16843E-06   -0.38734E-08  2688   0.851E-04
   1 F= -.10469704E+02 E0= -.10469704E+02  d E =-.140512E-10
 writing wavefunctions
 running on   16 total cores
 distrk:  each k-point on   16 cores,    1 groups
 distr:  one band on    1 cores,   16 groups
 using from now: INCAR     
 vasp.5.4.1 24Jun15 (build May 02 2016 14:41:14) complex                        
  
 POSCAR found type information on POSCAR  Si
 POSCAR found :  1 types and       2 ions
 scaLAPACK will be used

 ----------------------------------------------------------------------------- 
|                                                                             |
|           W    W    AA    RRRRR   N    N  II  N    N   GGGG   !!!           |
|           W    W   A  A   R    R  NN   N  II  NN   N  G    G  !!!           |
|           W    W  A    A  R    R  N N  N  II  N N  N  G       !!!           |
|           W WW W  AAAAAA  RRRRR   N  N N  II  N  N N  G  GGG   !            |
|           WW  WW  A    A  R   R   N   NN  II  N   NN  G    G                |
|           W    W  A    A  R    R  N    N  II  N    N   GGGG   !!!           |
|                                                                             |
|      For optimal performance we recommend to set                            |
|        NCORE= 4 - approx SQRT( number of cores)                             |
|      NCORE specifies how many cores store one orbital (NPAR=cpu/NCORE).     |
|      This setting can  greatly improve the performance of VASP for DFT.     |
|      The default, NPAR=number of cores might be grossly inefficient         |
|      on modern multi-core architectures or massively parallel machines.     |
|      Do your own testing !!!!                                               |
|      Unfortunately you need to use the default for GW and RPA calculations. |
|      (for HF NCORE is supported but not extensively tested yet)             |
|                                                                             |
 ----------------------------------------------------------------------------- 

 LDA part: xc-table for Pade appr. of Perdew
 POSCAR, INCAR and KPOINTS ok, starting setup
 WARNING: small aliasing (wrap around) errors must be expected
 FFT: planning ...
 WAVECAR not read
 entering main loop
       N       E                     dE             d eps       ncg     rms          rms(c)
DAV:   1    -0.843746691373E+01   -0.84375E+01   -0.15371E+03  4432   0.141E+02
DAV:   2    -0.105607448493E+02   -0.21233E+01   -0.21230E+01  5776   0.162E+01
DAV:   3    -0.105660980493E+02   -0.53532E-02   -0.53532E-02  4496   0.850E-01
DAV:   4    -0.105661029063E+02   -0.48570E-05   -0.48570E-05  6768   0.243E-02
DAV:   5    -0.105661029064E+02   -0.70372E-10   -0.59819E-10  4416   0.693E-05    0.251E+00
DAV:   6    -0.105077205191E+02    0.58382E-01   -0.29079E-02  4896   0.433E-01    0.153E+00
DAV:   7    -0.104751950730E+02    0.32525E-01   -0.67965E-02  5616   0.728E-01    0.106E-01
DAV:   8    -0.104765611460E+02   -0.13661E-02   -0.22720E-03  4736   0.155E-01    0.267E-02
DAV:   9    -0.104767241428E+02   -0.16300E-03   -0.18898E-04  6064   0.487E-02    0.116E-02
DAV:  10    -0.104767366983E+02   -0.12555E-04   -0.20132E-05  4960   0.159E-02    0.232E-03
DAV:  11    -0.104767356254E+02    0.10729E-05   -0.10340E-06  6256   0.273E-03    0.429E-04
DAV:  12    -0.104767355081E+02    0.11726E-06   -0.38070E-08  2816   0.851E-04
   1 F= -.10476736E+02 E0= -.10476736E+02  d E =-.506773E-11
 writing wavefunctions
 running on   16 total cores
 distrk:  each k-point on   16 cores,    1 groups
 distr:  one band on    1 cores,   16 groups
 using from now: INCAR     
 vasp.5.4.1 24Jun15 (build May 02 2016 14:41:14) complex                        
  
 POSCAR found type information on POSCAR  Si
 POSCAR found :  1 types and       2 ions
 scaLAPACK will be used

 ----------------------------------------------------------------------------- 
|                                                                             |
|           W    W    AA    RRRRR   N    N  II  N    N   GGGG   !!!           |
|           W    W   A  A   R    R  NN   N  II  NN   N  G    G  !!!           |
|           W    W  A    A  R    R  N N  N  II  N N  N  G       !!!           |
|           W WW W  AAAAAA  RRRRR   N  N N  II  N  N N  G  GGG   !            |
|           WW  WW  A    A  R   R   N   NN  II  N   NN  G    G                |
|           W    W  A    A  R    R  N    N  II  N    N   GGGG   !!!           |
|                                                                             |
|      For optimal performance we recommend to set                            |
|        NCORE= 4 - approx SQRT( number of cores)                             |
|      NCORE specifies how many cores store one orbital (NPAR=cpu/NCORE).     |
|      This setting can  greatly improve the performance of VASP for DFT.     |
|      The default, NPAR=number of cores might be grossly inefficient         |
|      on modern multi-core architectures or massively parallel machines.     |
|      Do your own testing !!!!                                               |
|      Unfortunately you need to use the default for GW and RPA calculations. |
|      (for HF NCORE is supported but not extensively tested yet)             |
|                                                                             |
 ----------------------------------------------------------------------------- 

 LDA part: xc-table for Pade appr. of Perdew
 POSCAR, INCAR and KPOINTS ok, starting setup
 WARNING: small aliasing (wrap around) errors must be expected
 FFT: planning ...
 WAVECAR not read
 entering main loop
       N       E                     dE             d eps       ncg     rms          rms(c)
DAV:   1    -0.829279013859E+01   -0.82928E+01   -0.16072E+03  4304   0.149E+02
DAV:   2    -0.105689682089E+02   -0.22762E+01   -0.22718E+01  5776   0.170E+01
DAV:   3    -0.105749072807E+02   -0.59391E-02   -0.59391E-02  4480   0.948E-01
DAV:   4    -0.105749135642E+02   -0.62836E-05   -0.62836E-05  6784   0.285E-02
DAV:   5    -0.105749135643E+02   -0.10948E-09   -0.10884E-09  4432   0.981E-05    0.251E+00
DAV:   6    -0.105166865707E+02    0.58227E-01   -0.29687E-02  5056   0.443E-01    0.153E+00
DAV:   7    -0.104846277288E+02    0.32059E-01   -0.69028E-02  5616   0.744E-01    0.107E-01
DAV:   8    -0.104859919900E+02   -0.13643E-02   -0.22648E-03  4784   0.155E-01    0.266E-02
DAV:   9    -0.104861522789E+02   -0.16029E-03   -0.18380E-04  6144   0.482E-02    0.116E-02
DAV:  10    -0.104861648152E+02   -0.12536E-04   -0.19788E-05  5040   0.158E-02    0.230E-03
DAV:  11    -0.104861637761E+02    0.10391E-05   -0.10351E-06  6160   0.277E-03    0.431E-04
DAV:  12    -0.104861636523E+02    0.12381E-06   -0.38935E-08  2880   0.869E-04
   1 F= -.10486164E+02 E0= -.10486164E+02  d E =-.299120E-10
 writing wavefunctions
 running on   16 total cores
 distrk:  each k-point on   16 cores,    1 groups
 distr:  one band on    1 cores,   16 groups
 using from now: INCAR     
 vasp.5.4.1 24Jun15 (build May 02 2016 14:41:14) complex                        
  
 POSCAR found type information on POSCAR  Si
 POSCAR found :  1 types and       2 ions
 scaLAPACK will be used

 ----------------------------------------------------------------------------- 
|                                                                             |
|           W    W    AA    RRRRR   N    N  II  N    N   GGGG   !!!           |
|           W    W   A  A   R    R  NN   N  II  NN   N  G    G  !!!           |
|           W    W  A    A  R    R  N N  N  II  N N  N  G       !!!           |
|           W WW W  AAAAAA  RRRRR   N  N N  II  N  N N  G  GGG   !            |
|           WW  WW  A    A  R   R   N   NN  II  N   NN  G    G                |
|           W    W  A    A  R    R  N    N  II  N    N   GGGG   !!!           |
|                                                                             |
|      For optimal performance we recommend to set                            |
|        NCORE= 4 - approx SQRT( number of cores)                             |
|      NCORE specifies how many cores store one orbital (NPAR=cpu/NCORE).     |
|      This setting can  greatly improve the performance of VASP for DFT.     |
|      The default, NPAR=number of cores might be grossly inefficient         |
|      on modern multi-core architectures or massively parallel machines.     |
|      Do your own testing !!!!                                               |
|      Unfortunately you need to use the default for GW and RPA calculations. |
|      (for HF NCORE is supported but not extensively tested yet)             |
|                                                                             |
 ----------------------------------------------------------------------------- 

 LDA part: xc-table for Pade appr. of Perdew
 POSCAR, INCAR and KPOINTS ok, starting setup
 WARNING: small aliasing (wrap around) errors must be expected
 FFT: planning ...
 WAVECAR not read
 entering main loop
       N       E                     dE             d eps       ncg     rms          rms(c)
DAV:   1    -0.801937526512E+01   -0.80194E+01   -0.16997E+03  4256   0.158E+02
DAV:   2    -0.105742944125E+02   -0.25549E+01   -0.25464E+01  5872   0.178E+01
DAV:   3    -0.105822847431E+02   -0.79903E-02   -0.79903E-02  4480   0.108E+00
DAV:   4    -0.105822939941E+02   -0.92509E-05   -0.92509E-05  6864   0.350E-02
DAV:   5    -0.105822939942E+02   -0.14188E-09   -0.13722E-09  4384   0.114E-04    0.252E+00
DAV:   6    -0.105243479506E+02    0.57946E-01   -0.30096E-02  5040   0.450E-01    0.153E+00
DAV:   7    -0.104926563354E+02    0.31692E-01   -0.69763E-02  5632   0.755E-01    0.108E-01
DAV:   8    -0.104940092704E+02   -0.13529E-02   -0.22531E-03  4736   0.155E-01    0.266E-02
DAV:   9    -0.104941664740E+02   -0.15720E-03   -0.17849E-04  6272   0.476E-02    0.116E-02
DAV:  10    -0.104941789685E+02   -0.12494E-04   -0.19651E-05  5024   0.158E-02    0.229E-03
DAV:  11    -0.104941779559E+02    0.10126E-05   -0.10338E-06  6320   0.279E-03    0.433E-04
DAV:  12    -0.104941778258E+02    0.13005E-06   -0.39997E-08  3024   0.889E-04
   1 F= -.10494178E+02 E0= -.10494178E+02  d E =-.274303E-10
 writing wavefunctions
 running on   16 total cores
 distrk:  each k-point on   16 cores,    1 groups
 distr:  one band on    1 cores,   16 groups
 using from now: INCAR     
 vasp.5.4.1 24Jun15 (build May 02 2016 14:41:14) complex                        
  
 POSCAR found type information on POSCAR  Si
 POSCAR found :  1 types and       2 ions
 scaLAPACK will be used

 ----------------------------------------------------------------------------- 
|                                                                             |
|           W    W    AA    RRRRR   N    N  II  N    N   GGGG   !!!           |
|           W    W   A  A   R    R  NN   N  II  NN   N  G    G  !!!           |
|           W    W  A    A  R    R  N N  N  II  N N  N  G       !!!           |
|           W WW W  AAAAAA  RRRRR   N  N N  II  N  N N  G  GGG   !            |
|           WW  WW  A    A  R   R   N   NN  II  N   NN  G    G                |
|           W    W  A    A  R    R  N    N  II  N    N   GGGG   !!!           |
|                                                                             |
|      For optimal performance we recommend to set                            |
|        NCORE= 4 - approx SQRT( number of cores)                             |
|      NCORE specifies how many cores store one orbital (NPAR=cpu/NCORE).     |
|      This setting can  greatly improve the performance of VASP for DFT.     |
|      The default, NPAR=number of cores might be grossly inefficient         |
|      on modern multi-core architectures or massively parallel machines.     |
|      Do your own testing !!!!                                               |
|      Unfortunately you need to use the default for GW and RPA calculations. |
|      (for HF NCORE is supported but not extensively tested yet)             |
|                                                                             |
 ----------------------------------------------------------------------------- 

 LDA part: xc-table for Pade appr. of Perdew
 POSCAR, INCAR and KPOINTS ok, starting setup
 WARNING: small aliasing (wrap around) errors must be expected
 FFT: planning ...
 WAVECAR not read
 entering main loop
       N       E                     dE             d eps       ncg     rms          rms(c)
DAV:   1    -0.773903881837E+01   -0.77390E+01   -0.17250E+03  4208   0.164E+02
DAV:   2    -0.105795835598E+02   -0.28405E+01   -0.28333E+01  5872   0.189E+01
DAV:   3    -0.105891034879E+02   -0.95199E-02   -0.95199E-02  4224   0.118E+00
DAV:   4    -0.105891172101E+02   -0.13722E-04   -0.13722E-04  7072   0.434E-02
DAV:   5    -0.105891172104E+02   -0.33066E-09   -0.28626E-09  4144   0.163E-04    0.252E+00
DAV:   6    -0.105314539668E+02    0.57663E-01   -0.30406E-02  5168   0.456E-01    0.153E+00
DAV:   7    -0.105000507881E+02    0.31403E-01   -0.70301E-02  5712   0.763E-01    0.109E-01
DAV:   8    -0.105013930121E+02   -0.13422E-02   -0.22299E-03  4816   0.154E-01    0.265E-02
DAV:   9    -0.105015473954E+02   -0.15438E-03   -0.17358E-04  6256   0.470E-02    0.116E-02
DAV:  10    -0.105015599487E+02   -0.12553E-04   -0.19793E-05  4960   0.159E-02    0.226E-03
DAV:  11    -0.105015589651E+02    0.98363E-06   -0.10158E-06  6368   0.280E-03
   1 F= -.10501559E+02 E0= -.10501559E+02  d E =-.405905E-11
 writing wavefunctions
 running on   16 total cores
 distrk:  each k-point on   16 cores,    1 groups
 distr:  one band on    1 cores,   16 groups
 using from now: INCAR     
 vasp.5.4.1 24Jun15 (build May 02 2016 14:41:14) complex                        
  
 POSCAR found type information on POSCAR  Si
 POSCAR found :  1 types and       2 ions
 scaLAPACK will be used

 ----------------------------------------------------------------------------- 
|                                                                             |
|           W    W    AA    RRRRR   N    N  II  N    N   GGGG   !!!           |
|           W    W   A  A   R    R  NN   N  II  NN   N  G    G  !!!           |
|           W    W  A    A  R    R  N N  N  II  N N  N  G       !!!           |
|           W WW W  AAAAAA  RRRRR   N  N N  II  N  N N  G  GGG   !            |
|           WW  WW  A    A  R   R   N   NN  II  N   NN  G    G                |
|           W    W  A    A  R    R  N    N  II  N    N   GGGG   !!!           |
|                                                                             |
|      For optimal performance we recommend to set                            |
|        NCORE= 4 - approx SQRT( number of cores)                             |
|      NCORE specifies how many cores store one orbital (NPAR=cpu/NCORE).     |
|      This setting can  greatly improve the performance of VASP for DFT.     |
|      The default, NPAR=number of cores might be grossly inefficient         |
|      on modern multi-core architectures or massively parallel machines.     |
|      Do your own testing !!!!                                               |
|      Unfortunately you need to use the default for GW and RPA calculations. |
|      (for HF NCORE is supported but not extensively tested yet)             |
|                                                                             |
 ----------------------------------------------------------------------------- 

 LDA part: xc-table for Pade appr. of Perdew
 POSCAR, INCAR and KPOINTS ok, starting setup
 WARNING: small aliasing (wrap around) errors must be expected
 FFT: planning ...
 WAVECAR not read
 entering main loop
       N       E                     dE             d eps       ncg     rms          rms(c)
DAV:   1    -0.743953638617E+01   -0.74395E+01   -0.17691E+03  4128   0.171E+02
DAV:   2    -0.105826603018E+02   -0.31431E+01   -0.31420E+01  5712   0.198E+01
DAV:   3    -0.105949438758E+02   -0.12284E-01   -0.12284E-01  4464   0.137E+00
DAV:   4    -0.105949626326E+02   -0.18757E-04   -0.18757E-04  6928   0.528E-02
DAV:   5    -0.105949626330E+02   -0.38500E-09   -0.34092E-09  4416   0.193E-04    0.252E+00
DAV:   6    -0.105374805534E+02    0.57482E-01   -0.30654E-02  5216   0.461E-01    0.153E+00
DAV:   7    -0.105062392214E+02    0.31241E-01   -0.70690E-02  5760   0.768E-01    0.109E-01
DAV:   8    -0.105075744150E+02   -0.13352E-02   -0.22213E-03  4848   0.154E-01    0.267E-02
DAV:   9    -0.105077294400E+02   -0.15503E-03   -0.17468E-04  6352   0.471E-02    0.116E-02
DAV:  10    -0.105077419626E+02   -0.12523E-04   -0.19749E-05  4976   0.159E-02    0.228E-03
DAV:  11    -0.105077409982E+02    0.96441E-06   -0.10409E-06  6400   0.285E-03
   1 F= -.10507741E+02 E0= -.10507741E+02  d E =-.511645E-11
 writing wavefunctions
 running on   16 total cores
 distrk:  each k-point on   16 cores,    1 groups
 distr:  one band on    1 cores,   16 groups
 using from now: INCAR     
 vasp.5.4.1 24Jun15 (build May 02 2016 14:41:14) complex                        
  
 POSCAR found type information on POSCAR  Si
 POSCAR found :  1 types and       2 ions
 scaLAPACK will be used

 ----------------------------------------------------------------------------- 
|                                                                             |
|           W    W    AA    RRRRR   N    N  II  N    N   GGGG   !!!           |
|           W    W   A  A   R    R  NN   N  II  NN   N  G    G  !!!           |
|           W    W  A    A  R    R  N N  N  II  N N  N  G       !!!           |
|           W WW W  AAAAAA  RRRRR   N  N N  II  N  N N  G  GGG   !            |
|           WW  WW  A    A  R   R   N   NN  II  N   NN  G    G                |
|           W    W  A    A  R    R  N    N  II  N    N   GGGG   !!!           |
|                                                                             |
|      For optimal performance we recommend to set                            |
|        NCORE= 4 - approx SQRT( number of cores)                             |
|      NCORE specifies how many cores store one orbital (NPAR=cpu/NCORE).     |
|      This setting can  greatly improve the performance of VASP for DFT.     |
|      The default, NPAR=number of cores might be grossly inefficient         |
|      on modern multi-core architectures or massively parallel machines.     |
|      Do your own testing !!!!                                               |
|      Unfortunately you need to use the default for GW and RPA calculations. |
|      (for HF NCORE is supported but not extensively tested yet)             |
|                                                                             |
 ----------------------------------------------------------------------------- 

 LDA part: xc-table for Pade appr. of Perdew
 POSCAR, INCAR and KPOINTS ok, starting setup
 WARNING: small aliasing (wrap around) errors must be expected
 FFT: planning ...
 WAVECAR not read
 entering main loop
       N       E                     dE             d eps       ncg     rms          rms(c)
DAV:   1    -0.728754041703E+01   -0.72875E+01   -0.18674E+03  4176   0.179E+02
DAV:   2    -0.105857805280E+02   -0.32982E+01   -0.32910E+01  5824   0.204E+01
DAV:   3    -0.105992393447E+02   -0.13459E-01   -0.13459E-01  4192   0.144E+00
DAV:   4    -0.105992620166E+02   -0.22672E-04   -0.22672E-04  7136   0.591E-02
DAV:   5    -0.105992620173E+02   -0.69207E-09   -0.48406E-09  4160   0.236E-04    0.252E+00
DAV:   6    -0.105418277147E+02    0.57434E-01   -0.30851E-02  5056   0.464E-01    0.154E+00
DAV:   7    -0.105106295256E+02    0.31198E-01   -0.71041E-02  5792   0.771E-01    0.110E-01
DAV:   8    -0.105119640761E+02   -0.13346E-02   -0.22366E-03  4848   0.155E-01    0.266E-02
DAV:   9    -0.105121180584E+02   -0.15398E-03   -0.17272E-04  6320   0.468E-02    0.117E-02
DAV:  10    -0.105121308379E+02   -0.12779E-04   -0.20131E-05  4864   0.162E-02    0.229E-03
DAV:  11    -0.105121298814E+02    0.95655E-06   -0.10565E-06  6464   0.289E-03
   1 F= -.10512130E+02 E0= -.10512130E+02  d E =-.122869E-11
 writing wavefunctions
 running on   16 total cores
 distrk:  each k-point on   16 cores,    1 groups
 distr:  one band on    1 cores,   16 groups
 using from now: INCAR     
 vasp.5.4.1 24Jun15 (build May 02 2016 14:41:14) complex                        
  
 POSCAR found type information on POSCAR  Si
 POSCAR found :  1 types and       2 ions
 scaLAPACK will be used

 ----------------------------------------------------------------------------- 
|                                                                             |
|           W    W    AA    RRRRR   N    N  II  N    N   GGGG   !!!           |
|           W    W   A  A   R    R  NN   N  II  NN   N  G    G  !!!           |
|           W    W  A    A  R    R  N N  N  II  N N  N  G       !!!           |
|           W WW W  AAAAAA  RRRRR   N  N N  II  N  N N  G  GGG   !            |
|           WW  WW  A    A  R   R   N   NN  II  N   NN  G    G                |
|           W    W  A    A  R    R  N    N  II  N    N   GGGG   !!!           |
|                                                                             |
|      For optimal performance we recommend to set                            |
|        NCORE= 4 - approx SQRT( number of cores)                             |
|      NCORE specifies how many cores store one orbital (NPAR=cpu/NCORE).     |
|      This setting can  greatly improve the performance of VASP for DFT.     |
|      The default, NPAR=number of cores might be grossly inefficient         |
|      on modern multi-core architectures or massively parallel machines.     |
|      Do your own testing !!!!                                               |
|      Unfortunately you need to use the default for GW and RPA calculations. |
|      (for HF NCORE is supported but not extensively tested yet)             |
|                                                                             |
 ----------------------------------------------------------------------------- 

 LDA part: xc-table for Pade appr. of Perdew
 POSCAR, INCAR and KPOINTS ok, starting setup
 WARNING: small aliasing (wrap around) errors must be expected
 FFT: planning ...
 WAVECAR not read
 entering main loop
       N       E                     dE             d eps       ncg     rms          rms(c)
DAV:   1    -0.667693875604E+01   -0.66769E+01   -0.19877E+03  4000   0.196E+02
DAV:   2    -0.105896196508E+02   -0.39127E+01   -0.38887E+01  5664   0.222E+01
DAV:   3    -0.106079582838E+02   -0.18339E-01   -0.18339E-01  4432   0.173E+00
DAV:   4    -0.106079891733E+02   -0.30889E-04   -0.30890E-04  6896   0.720E-02
DAV:   5    -0.106079891742E+02   -0.94548E-09   -0.94542E-09  4400   0.347E-04    0.253E+00
DAV:   6    -0.105505117469E+02    0.57477E-01   -0.31163E-02  5200   0.467E-01    0.154E+00
DAV:   7    -0.105192855616E+02    0.31226E-01   -0.71567E-02  5808   0.773E-01    0.110E-01
DAV:   8    -0.105206193718E+02   -0.13338E-02   -0.22655E-03  4752   0.157E-01    0.269E-02
DAV:   9    -0.105207750201E+02   -0.15565E-03   -0.17534E-04  6288   0.472E-02    0.118E-02
DAV:  10    -0.105207880832E+02   -0.13063E-04   -0.20565E-05  4784   0.165E-02    0.236E-03
DAV:  11    -0.105207871093E+02    0.97396E-06   -0.11270E-06  6656   0.301E-03
   1 F= -.10520787E+02 E0= -.10520787E+02  d E =-.162219E-11
 writing wavefunctions
 running on   16 total cores
 distrk:  each k-point on   16 cores,    1 groups
 distr:  one band on    1 cores,   16 groups
 using from now: INCAR     
 vasp.5.4.1 24Jun15 (build May 02 2016 14:41:14) complex                        
  
 POSCAR found type information on POSCAR  Si
 POSCAR found :  1 types and       2 ions
 scaLAPACK will be used

 ----------------------------------------------------------------------------- 
|                                                                             |
|           W    W    AA    RRRRR   N    N  II  N    N   GGGG   !!!           |
|           W    W   A  A   R    R  NN   N  II  NN   N  G    G  !!!           |
|           W    W  A    A  R    R  N N  N  II  N N  N  G       !!!           |
|           W WW W  AAAAAA  RRRRR   N  N N  II  N  N N  G  GGG   !            |
|           WW  WW  A    A  R   R   N   NN  II  N   NN  G    G                |
|           W    W  A    A  R    R  N    N  II  N    N   GGGG   !!!           |
|                                                                             |
|      For optimal performance we recommend to set                            |
|        NCORE= 4 - approx SQRT( number of cores)                             |
|      NCORE specifies how many cores store one orbital (NPAR=cpu/NCORE).     |
|      This setting can  greatly improve the performance of VASP for DFT.     |
|      The default, NPAR=number of cores might be grossly inefficient         |
|      on modern multi-core architectures or massively parallel machines.     |
|      Do your own testing !!!!                                               |
|      Unfortunately you need to use the default for GW and RPA calculations. |
|      (for HF NCORE is supported but not extensively tested yet)             |
|                                                                             |
 ----------------------------------------------------------------------------- 

 LDA part: xc-table for Pade appr. of Perdew
 POSCAR, INCAR and KPOINTS ok, starting setup
 WARNING: small aliasing (wrap around) errors must be expected
 FFT: planning ...
 WAVECAR not read
 entering main loop
       N       E                     dE             d eps       ncg     rms          rms(c)
DAV:   1    -0.638757289197E+01   -0.63876E+01   -0.20252E+03  4096   0.208E+02
DAV:   2    -0.105938170507E+02   -0.42062E+01   -0.41947E+01  5648   0.230E+01
DAV:   3    -0.106162194762E+02   -0.22402E-01   -0.22402E-01  4352   0.191E+00
DAV:   4    -0.106162664636E+02   -0.46987E-04   -0.46988E-04  7024   0.896E-02
DAV:   5    -0.106162664657E+02   -0.20659E-08   -0.20657E-08  4384   0.461E-04    0.253E+00
DAV:   6    -0.105589434384E+02    0.57323E-01   -0.31386E-02  5232   0.470E-01    0.154E+00
DAV:   7    -0.105273830530E+02    0.31560E-01   -0.71944E-02  5776   0.771E-01    0.111E-01
DAV:   8    -0.105287161117E+02   -0.13331E-02   -0.22898E-03  4736   0.159E-01    0.275E-02
DAV:   9    -0.105288770370E+02   -0.16093E-03   -0.18440E-04  6352   0.485E-02    0.120E-02
DAV:  10    -0.105288898298E+02   -0.12793E-04   -0.20510E-05  4960   0.166E-02    0.247E-03
DAV:  11    -0.105288888181E+02    0.10117E-05   -0.12257E-06  6528   0.314E-03    0.437E-04
DAV:  12    -0.105288887413E+02    0.76869E-07   -0.48851E-08  3344   0.102E-03
   1 F= -.10528889E+02 E0= -.10528889E+02  d E =-.421283E-11
 writing wavefunctions
 running on   16 total cores
 distrk:  each k-point on   16 cores,    1 groups
 distr:  one band on    1 cores,   16 groups
 using from now: INCAR     
 vasp.5.4.1 24Jun15 (build May 02 2016 14:41:14) complex                        
  
 POSCAR found type information on POSCAR  Si
 POSCAR found :  1 types and       2 ions
 scaLAPACK will be used

 ----------------------------------------------------------------------------- 
|                                                                             |
|           W    W    AA    RRRRR   N    N  II  N    N   GGGG   !!!           |
|           W    W   A  A   R    R  NN   N  II  NN   N  G    G  !!!           |
|           W    W  A    A  R    R  N N  N  II  N N  N  G       !!!           |
|           W WW W  AAAAAA  RRRRR   N  N N  II  N  N N  G  GGG   !            |
|           WW  WW  A    A  R   R   N   NN  II  N   NN  G    G                |
|           W    W  A    A  R    R  N    N  II  N    N   GGGG   !!!           |
|                                                                             |
|      For optimal performance we recommend to set                            |
|        NCORE= 4 - approx SQRT( number of cores)                             |
|      NCORE specifies how many cores store one orbital (NPAR=cpu/NCORE).     |
|      This setting can  greatly improve the performance of VASP for DFT.     |
|      The default, NPAR=number of cores might be grossly inefficient         |
|      on modern multi-core architectures or massively parallel machines.     |
|      Do your own testing !!!!                                               |
|      Unfortunately you need to use the default for GW and RPA calculations. |
|      (for HF NCORE is supported but not extensively tested yet)             |
|                                                                             |
 ----------------------------------------------------------------------------- 

 LDA part: xc-table for Pade appr. of Perdew
 POSCAR, INCAR and KPOINTS ok, starting setup
 WARNING: small aliasing (wrap around) errors must be expected
 FFT: planning ...
 WAVECAR not read
 entering main loop
       N       E                     dE             d eps       ncg     rms          rms(c)
DAV:   1    -0.568951080690E+01   -0.56895E+01   -0.21460E+03  3984   0.222E+02
DAV:   2    -0.105944309948E+02   -0.49049E+01   -0.48670E+01  5680   0.248E+01
DAV:   3    -0.106212343034E+02   -0.26803E-01   -0.26803E-01  4256   0.217E+00
DAV:   4    -0.106212968969E+02   -0.62593E-04   -0.62593E-04  7216   0.110E-01
DAV:   5    -0.106212968999E+02   -0.29913E-08   -0.29909E-08  4208   0.573E-04    0.254E+00
DAV:   6    -0.105638288138E+02    0.57468E-01   -0.31553E-02  5392   0.471E-01    0.154E+00
DAV:   7    -0.105322277163E+02    0.31601E-01   -0.72246E-02  5888   0.771E-01    0.111E-01
DAV:   8    -0.105335644774E+02   -0.13368E-02   -0.22932E-03  4656   0.160E-01    0.274E-02
DAV:   9    -0.105337256203E+02   -0.16114E-03   -0.18428E-04  6560   0.486E-02    0.121E-02
DAV:  10    -0.105337387625E+02   -0.13142E-04   -0.21168E-05  4688   0.170E-02    0.252E-03
DAV:  11    -0.105337377078E+02    0.10547E-05   -0.12622E-06  6752   0.320E-03    0.438E-04
DAV:  12    -0.105337376284E+02    0.79398E-07   -0.48349E-08  3312   0.102E-03
   1 F= -.10533738E+02 E0= -.10533738E+02  d E =-.126824E-11
 writing wavefunctions
 running on   16 total cores
 distrk:  each k-point on   16 cores,    1 groups
 distr:  one band on    1 cores,   16 groups
 using from now: INCAR     
 vasp.5.4.1 24Jun15 (build May 02 2016 14:41:14) complex                        
  
 POSCAR found type information on POSCAR  Si
 POSCAR found :  1 types and       2 ions
 scaLAPACK will be used

 ----------------------------------------------------------------------------- 
|                                                                             |
|           W    W    AA    RRRRR   N    N  II  N    N   GGGG   !!!           |
|           W    W   A  A   R    R  NN   N  II  NN   N  G    G  !!!           |
|           W    W  A    A  R    R  N N  N  II  N N  N  G       !!!           |
|           W WW W  AAAAAA  RRRRR   N  N N  II  N  N N  G  GGG   !            |
|           WW  WW  A    A  R   R   N   NN  II  N   NN  G    G                |
|           W    W  A    A  R    R  N    N  II  N    N   GGGG   !!!           |
|                                                                             |
|      For optimal performance we recommend to set                            |
|        NCORE= 4 - approx SQRT( number of cores)                             |
|      NCORE specifies how many cores store one orbital (NPAR=cpu/NCORE).     |
|      This setting can  greatly improve the performance of VASP for DFT.     |
|      The default, NPAR=number of cores might be grossly inefficient         |
|      on modern multi-core architectures or massively parallel machines.     |
|      Do your own testing !!!!                                               |
|      Unfortunately you need to use the default for GW and RPA calculations. |
|      (for HF NCORE is supported but not extensively tested yet)             |
|                                                                             |
 ----------------------------------------------------------------------------- 

 LDA part: xc-table for Pade appr. of Perdew
 POSCAR, INCAR and KPOINTS ok, starting setup
 WARNING: small aliasing (wrap around) errors must be expected
 FFT: planning ...
 WAVECAR not read
 entering main loop
       N       E                     dE             d eps       ncg     rms          rms(c)
DAV:   1    -0.544641012036E+01   -0.54464E+01   -0.22335E+03  3936   0.235E+02
DAV:   2    -0.105939919044E+02   -0.51476E+01   -0.51226E+01  5712   0.257E+01
DAV:   3    -0.106237742547E+02   -0.29782E-01   -0.29782E-01  4256   0.230E+00
DAV:   4    -0.106238490305E+02   -0.74776E-04   -0.74776E-04  7168   0.121E-01
DAV:   5    -0.106238490337E+02   -0.32307E-08   -0.32291E-08  4240   0.619E-04    0.254E+00
DAV:   6    -0.105662525003E+02    0.57597E-01   -0.31650E-02  5360   0.471E-01    0.154E+00
DAV:   7    -0.105346346706E+02    0.31618E-01   -0.72452E-02  5840   0.772E-01    0.111E-01
DAV:   8    -0.105359759791E+02   -0.13413E-02   -0.23163E-03  4608   0.161E-01    0.274E-02
DAV:   9    -0.105361363273E+02   -0.16035E-03   -0.18271E-04  6464   0.486E-02    0.121E-02
DAV:  10    -0.105361496446E+02   -0.13317E-04   -0.21315E-05  4816   0.171E-02    0.251E-03
DAV:  11    -0.105361486083E+02    0.10363E-05   -0.12689E-06  6672   0.323E-03    0.438E-04
DAV:  12    -0.105361485268E+02    0.81498E-07   -0.47896E-08  3424   0.102E-03
   1 F= -.10536149E+02 E0= -.10536149E+02  d E =-.153517E-10
 writing wavefunctions
 running on   16 total cores
 distrk:  each k-point on   16 cores,    1 groups
 distr:  one band on    1 cores,   16 groups
 using from now: INCAR     
 vasp.5.4.1 24Jun15 (build May 02 2016 14:41:14) complex                        
  
 POSCAR found type information on POSCAR  Si
 POSCAR found :  1 types and       2 ions
 scaLAPACK will be used

 ----------------------------------------------------------------------------- 
|                                                                             |
|           W    W    AA    RRRRR   N    N  II  N    N   GGGG   !!!           |
|           W    W   A  A   R    R  NN   N  II  NN   N  G    G  !!!           |
|           W    W  A    A  R    R  N N  N  II  N N  N  G       !!!           |
|           W WW W  AAAAAA  RRRRR   N  N N  II  N  N N  G  GGG   !            |
|           WW  WW  A    A  R   R   N   NN  II  N   NN  G    G                |
|           W    W  A    A  R    R  N    N  II  N    N   GGGG   !!!           |
|                                                                             |
|      For optimal performance we recommend to set                            |
|        NCORE= 4 - approx SQRT( number of cores)                             |
|      NCORE specifies how many cores store one orbital (NPAR=cpu/NCORE).     |
|      This setting can  greatly improve the performance of VASP for DFT.     |
|      The default, NPAR=number of cores might be grossly inefficient         |
|      on modern multi-core architectures or massively parallel machines.     |
|      Do your own testing !!!!                                               |
|      Unfortunately you need to use the default for GW and RPA calculations. |
|      (for HF NCORE is supported but not extensively tested yet)             |
|                                                                             |
 ----------------------------------------------------------------------------- 

 LDA part: xc-table for Pade appr. of Perdew
 POSCAR, INCAR and KPOINTS ok, starting setup
 WARNING: small aliasing (wrap around) errors must be expected
 FFT: planning ...
 WAVECAR not read
 entering main loop
       N       E                     dE             d eps       ncg     rms          rms(c)
DAV:   1    -0.495679065325E+01   -0.49568E+01   -0.23609E+03  3904   0.252E+02
DAV:   2    -0.105918403518E+02   -0.56350E+01   -0.55637E+01  5760   0.268E+01
DAV:   3    -0.106258357976E+02   -0.33995E-01   -0.33995E-01  4368   0.251E+00
DAV:   4    -0.106259211479E+02   -0.85350E-04   -0.85350E-04  7056   0.130E-01
DAV:   5    -0.106259211520E+02   -0.41515E-08   -0.41486E-08  4400   0.786E-04    0.254E+00
DAV:   6    -0.105682349300E+02    0.57686E-01   -0.31694E-02  5264   0.471E-01    0.155E+00
DAV:   7    -0.105366152858E+02    0.31620E-01   -0.72612E-02  5856   0.774E-01    0.111E-01
DAV:   8    -0.105379621690E+02   -0.13469E-02   -0.23533E-03  4624   0.163E-01    0.273E-02
DAV:   9    -0.105381210905E+02   -0.15892E-03   -0.18037E-04  6544   0.485E-02    0.121E-02
DAV:  10    -0.105381345302E+02   -0.13440E-04   -0.21314E-05  4816   0.172E-02    0.251E-03
DAV:  11    -0.105381335174E+02    0.10129E-05   -0.12843E-06  6704   0.328E-03    0.440E-04
DAV:  12    -0.105381334352E+02    0.82190E-07   -0.47509E-08  3456   0.103E-03
   1 F= -.10538133E+02 E0= -.10538133E+02  d E =-.118861E-10
 writing wavefunctions
 running on   16 total cores
 distrk:  each k-point on   16 cores,    1 groups
 distr:  one band on    1 cores,   16 groups
 using from now: INCAR     
 vasp.5.4.1 24Jun15 (build May 02 2016 14:41:14) complex                        
  
 POSCAR found type information on POSCAR  Si
 POSCAR found :  1 types and       2 ions
 scaLAPACK will be used

 ----------------------------------------------------------------------------- 
|                                                                             |
|           W    W    AA    RRRRR   N    N  II  N    N   GGGG   !!!           |
|           W    W   A  A   R    R  NN   N  II  NN   N  G    G  !!!           |
|           W    W  A    A  R    R  N N  N  II  N N  N  G       !!!           |
|           W WW W  AAAAAA  RRRRR   N  N N  II  N  N N  G  GGG   !            |
|           WW  WW  A    A  R   R   N   NN  II  N   NN  G    G                |
|           W    W  A    A  R    R  N    N  II  N    N   GGGG   !!!           |
|                                                                             |
|      For optimal performance we recommend to set                            |
|        NCORE= 4 - approx SQRT( number of cores)                             |
|      NCORE specifies how many cores store one orbital (NPAR=cpu/NCORE).     |
|      This setting can  greatly improve the performance of VASP for DFT.     |
|      The default, NPAR=number of cores might be grossly inefficient         |
|      on modern multi-core architectures or massively parallel machines.     |
|      Do your own testing !!!!                                               |
|      Unfortunately you need to use the default for GW and RPA calculations. |
|      (for HF NCORE is supported but not extensively tested yet)             |
|                                                                             |
 ----------------------------------------------------------------------------- 

 LDA part: xc-table for Pade appr. of Perdew
 POSCAR, INCAR and KPOINTS ok, starting setup
 WARNING: small aliasing (wrap around) errors must be expected
 FFT: planning ...
 WAVECAR not read
 entering main loop
       N       E                     dE             d eps       ncg     rms          rms(c)
DAV:   1    -0.390113638875E+01   -0.39011E+01   -0.25715E+03  3856   0.285E+02
DAV:   2    -0.105876349784E+02   -0.66865E+01   -0.66032E+01  5664   0.293E+01
DAV:   3    -0.106299565116E+02   -0.42322E-01   -0.42322E-01  4528   0.290E+00
DAV:   4    -0.106300732251E+02   -0.11671E-03   -0.11671E-03  7088   0.159E-01
DAV:   5    -0.106300732303E+02   -0.51738E-08   -0.51633E-08  4448   0.982E-04    0.254E+00
DAV:   6    -0.105723671159E+02    0.57706E-01   -0.31752E-02  5424   0.471E-01    0.155E+00
DAV:   7    -0.105407167063E+02    0.31650E-01   -0.72725E-02  5824   0.774E-01    0.111E-01
DAV:   8    -0.105420642275E+02   -0.13475E-02   -0.23784E-03  4752   0.167E-01    0.275E-02
DAV:   9    -0.105422246675E+02   -0.16044E-03   -0.18346E-04  6464   0.493E-02    0.121E-02
DAV:  10    -0.105422379020E+02   -0.13234E-04   -0.20528E-05  4960   0.171E-02    0.254E-03
DAV:  11    -0.105422368965E+02    0.10055E-05   -0.13506E-06  6496   0.340E-03    0.442E-04
DAV:  12    -0.105422368258E+02    0.70691E-07   -0.46905E-08  3440   0.103E-03
   1 F= -.10542237E+02 E0= -.10542237E+02  d E =-.568651E-11
 writing wavefunctions
 running on   16 total cores
 distrk:  each k-point on   16 cores,    1 groups
 distr:  one band on    1 cores,   16 groups
 using from now: INCAR     
 vasp.5.4.1 24Jun15 (build May 02 2016 14:41:14) complex                        
  
 POSCAR found type information on POSCAR  Si
 POSCAR found :  1 types and       2 ions
 scaLAPACK will be used

 ----------------------------------------------------------------------------- 
|                                                                             |
|           W    W    AA    RRRRR   N    N  II  N    N   GGGG   !!!           |
|           W    W   A  A   R    R  NN   N  II  NN   N  G    G  !!!           |
|           W    W  A    A  R    R  N N  N  II  N N  N  G       !!!           |
|           W WW W  AAAAAA  RRRRR   N  N N  II  N  N N  G  GGG   !            |
|           WW  WW  A    A  R   R   N   NN  II  N   NN  G    G                |
|           W    W  A    A  R    R  N    N  II  N    N   GGGG   !!!           |
|                                                                             |
|      For optimal performance we recommend to set                            |
|        NCORE= 4 - approx SQRT( number of cores)                             |
|      NCORE specifies how many cores store one orbital (NPAR=cpu/NCORE).     |
|      This setting can  greatly improve the performance of VASP for DFT.     |
|      The default, NPAR=number of cores might be grossly inefficient         |
|      on modern multi-core architectures or massively parallel machines.     |
|      Do your own testing !!!!                                               |
|      Unfortunately you need to use the default for GW and RPA calculations. |
|      (for HF NCORE is supported but not extensively tested yet)             |
|                                                                             |
 ----------------------------------------------------------------------------- 

 LDA part: xc-table for Pade appr. of Perdew
 POSCAR, INCAR and KPOINTS ok, starting setup
 WARNING: small aliasing (wrap around) errors must be expected
 FFT: planning ...
 WAVECAR not read
 entering main loop
       N       E                     dE             d eps       ncg     rms          rms(c)
DAV:   1    -0.311178796667E+01   -0.31118E+01   -0.26668E+03  3856   0.314E+02
DAV:   2    -0.105822418042E+02   -0.74705E+01   -0.74055E+01  5792   0.309E+01
DAV:   3    -0.106312501397E+02   -0.49008E-01   -0.49008E-01  4304   0.318E+00
DAV:   4    -0.106314182066E+02   -0.16807E-03   -0.16807E-03  7184   0.202E-01
DAV:   5    -0.106314182133E+02   -0.66663E-08   -0.66630E-08  4272   0.120E-03    0.254E+00
DAV:   6    -0.105736574122E+02    0.57761E-01   -0.31797E-02  5392   0.472E-01    0.155E+00
DAV:   7    -0.105419884468E+02    0.31669E-01   -0.72855E-02  5904   0.776E-01    0.111E-01
DAV:   8    -0.105433364458E+02   -0.13480E-02   -0.23676E-03  4752   0.168E-01    0.275E-02
DAV:   9    -0.105434957685E+02   -0.15932E-03   -0.18180E-04  6496   0.496E-02    0.121E-02
DAV:  10    -0.105435091534E+02   -0.13385E-04   -0.20740E-05  4880   0.173E-02    0.254E-03
DAV:  11    -0.105435081373E+02    0.10161E-05   -0.13537E-06  6736   0.345E-03    0.443E-04
DAV:  12    -0.105435080683E+02    0.69013E-07   -0.47346E-08  3408   0.105E-03
   1 F= -.10543508E+02 E0= -.10543508E+02  d E =-.395926E-11
 writing wavefunctions
 running on   16 total cores
 distrk:  each k-point on   16 cores,    1 groups
 distr:  one band on    1 cores,   16 groups
 using from now: INCAR     
 vasp.5.4.1 24Jun15 (build May 02 2016 14:41:14) complex                        
  
 POSCAR found type information on POSCAR  Si
 POSCAR found :  1 types and       2 ions
 scaLAPACK will be used

 ----------------------------------------------------------------------------- 
|                                                                             |
|           W    W    AA    RRRRR   N    N  II  N    N   GGGG   !!!           |
|           W    W   A  A   R    R  NN   N  II  NN   N  G    G  !!!           |
|           W    W  A    A  R    R  N N  N  II  N N  N  G       !!!           |
|           W WW W  AAAAAA  RRRRR   N  N N  II  N  N N  G  GGG   !            |
|           WW  WW  A    A  R   R   N   NN  II  N   NN  G    G                |
|           W    W  A    A  R    R  N    N  II  N    N   GGGG   !!!           |
|                                                                             |
|      For optimal performance we recommend to set                            |
|        NCORE= 4 - approx SQRT( number of cores)                             |
|      NCORE specifies how many cores store one orbital (NPAR=cpu/NCORE).     |
|      This setting can  greatly improve the performance of VASP for DFT.     |
|      The default, NPAR=number of cores might be grossly inefficient         |
|      on modern multi-core architectures or massively parallel machines.     |
|      Do your own testing !!!!                                               |
|      Unfortunately you need to use the default for GW and RPA calculations. |
|      (for HF NCORE is supported but not extensively tested yet)             |
|                                                                             |
 ----------------------------------------------------------------------------- 

 LDA part: xc-table for Pade appr. of Perdew
 POSCAR, INCAR and KPOINTS ok, starting setup
 WARNING: small aliasing (wrap around) errors must be expected
 FFT: planning ...
 WAVECAR not read
 entering main loop
       N       E                     dE             d eps       ncg     rms          rms(c)
DAV:   1    -0.234408749648E+01   -0.23441E+01   -0.28809E+03  3856   0.347E+02
DAV:   2    -0.105735638273E+02   -0.82295E+01   -0.81187E+01  5648   0.326E+01
DAV:   3    -0.106313739729E+02   -0.57810E-01   -0.57810E-01  4176   0.347E+00
DAV:   4    -0.106315785973E+02   -0.20462E-03   -0.20462E-03  7408   0.231E-01
DAV:   5    -0.106315786080E+02   -0.10770E-07   -0.10755E-07  4112   0.143E-03    0.254E+00
DAV:   6    -0.105738181329E+02    0.57760E-01   -0.31840E-02  5424   0.473E-01    0.155E+00
DAV:   7    -0.105421219421E+02    0.31696E-01   -0.72893E-02  5856   0.778E-01    0.111E-01
DAV:   8    -0.105434684551E+02   -0.13465E-02   -0.23752E-03  4688   0.170E-01    0.278E-02
DAV:   9    -0.105436308020E+02   -0.16235E-03   -0.18747E-04  6656   0.506E-02    0.122E-02
DAV:  10    -0.105436438491E+02   -0.13047E-04   -0.20239E-05  4816   0.172E-02    0.258E-03
DAV:  11    -0.105436428683E+02    0.98081E-06   -0.14194E-06  6832   0.356E-03
   1 F= -.10543643E+02 E0= -.10543643E+02  d E =-.357288E-11
 writing wavefunctions
 running on   16 total cores
 distrk:  each k-point on   16 cores,    1 groups
 distr:  one band on    1 cores,   16 groups
 using from now: INCAR     
 vasp.5.4.1 24Jun15 (build May 02 2016 14:41:14) complex                        
  
 POSCAR found type information on POSCAR  Si
 POSCAR found :  1 types and       2 ions
 scaLAPACK will be used

 ----------------------------------------------------------------------------- 
|                                                                             |
|           W    W    AA    RRRRR   N    N  II  N    N   GGGG   !!!           |
|           W    W   A  A   R    R  NN   N  II  NN   N  G    G  !!!           |
|           W    W  A    A  R    R  N N  N  II  N N  N  G       !!!           |
|           W WW W  AAAAAA  RRRRR   N  N N  II  N  N N  G  GGG   !            |
|           WW  WW  A    A  R   R   N   NN  II  N   NN  G    G                |
|           W    W  A    A  R    R  N    N  II  N    N   GGGG   !!!           |
|                                                                             |
|      For optimal performance we recommend to set                            |
|        NCORE= 4 - approx SQRT( number of cores)                             |
|      NCORE specifies how many cores store one orbital (NPAR=cpu/NCORE).     |
|      This setting can  greatly improve the performance of VASP for DFT.     |
|      The default, NPAR=number of cores might be grossly inefficient         |
|      on modern multi-core architectures or massively parallel machines.     |
|      Do your own testing !!!!                                               |
|      Unfortunately you need to use the default for GW and RPA calculations. |
|      (for HF NCORE is supported but not extensively tested yet)             |
|                                                                             |
 ----------------------------------------------------------------------------- 

 LDA part: xc-table for Pade appr. of Perdew
 POSCAR, INCAR and KPOINTS ok, starting setup
 WARNING: small aliasing (wrap around) errors must be expected
 FFT: planning ...
 WAVECAR not read
 entering main loop
       N       E                     dE             d eps       ncg     rms          rms(c)
DAV:   1    -0.153421181391E+01   -0.15342E+01   -0.31558E+03  3840   0.381E+02
DAV:   2    -0.105648561332E+02   -0.90306E+01   -0.89002E+01  5584   0.342E+01
DAV:   3    -0.106313717110E+02   -0.66516E-01   -0.66516E-01  4528   0.372E+00
DAV:   4    -0.106315841310E+02   -0.21242E-03   -0.21242E-03  6976   0.228E-01
DAV:   5    -0.106315841492E+02   -0.18244E-07   -0.18230E-07  4512   0.176E-03    0.254E+00
DAV:   6    -0.105738125800E+02    0.57772E-01   -0.31864E-02  5424   0.474E-01    0.155E+00
DAV:   7    -0.105421152192E+02    0.31697E-01   -0.72980E-02  5824   0.781E-01    0.111E-01
DAV:   8    -0.105434633338E+02   -0.13481E-02   -0.23891E-03  4704   0.172E-01    0.277E-02
DAV:   9    -0.105436246857E+02   -0.16135E-03   -0.18614E-04  6528   0.508E-02    0.122E-02
DAV:  10    -0.105436377930E+02   -0.13107E-04   -0.20260E-05  4992   0.174E-02    0.260E-03
DAV:  11    -0.105436368102E+02    0.98281E-06   -0.14345E-06  6640   0.360E-03
   1 F= -.10543637E+02 E0= -.10543637E+02  d E =-.340211E-11
 writing wavefunctions
