   1   1   0   0
  0.1482975E+02  0.2757716E-09  0.2757716E-09  0.2757716E-09  0.5000000E-15
  1.000000000000000E-004
  CAR 
 FCC Silicon                             
     65.57115836     -7.71101299  301      9.49328909      1.00000000
     -7.711  0.0000E+00  0.0000E+00
     -7.467  0.0000E+00  0.0000E+00
     -7.222  0.0000E+00  0.0000E+00
     -6.978  0.0000E+00  0.0000E+00
     -6.734  0.0000E+00  0.0000E+00
     -6.490  0.0000E+00  0.0000E+00
     -6.245  0.0000E+00  0.0000E+00
     -6.001  0.0000E+00  0.0000E+00
     -5.757  0.0000E+00  0.0000E+00
     -5.513  0.0000E+00  0.0000E+00
     -5.268  0.0000E+00  0.0000E+00
     -5.024  0.0000E+00  0.0000E+00
     -4.780  0.1195E-08  0.2919E-09
     -4.535  0.2961E-02  0.7233E-03
     -4.291  0.3854E+00  0.9487E-01
     -4.047  0.4093E+00  0.1949E+00
     -3.803  0.2504E+00  0.2560E+00
     -3.558  0.1998E+00  0.3049E+00
     -3.314  0.1716E+00  0.3468E+00
     -3.070  0.1528E+00  0.3841E+00
     -2.826  0.1392E+00  0.4181E+00
     -2.581  0.1287E+00  0.4495E+00
     -2.337  0.1203E+00  0.4789E+00
     -2.093  0.1134E+00  0.5066E+00
     -1.848  0.1076E+00  0.5329E+00
     -1.604  0.1026E+00  0.5580E+00
     -1.360  0.9832E-01  0.5820E+00
     -1.116  0.9452E-01  0.6051E+00
     -0.871  0.9115E-01  0.6274E+00
     -0.627  0.8814E-01  0.6489E+00
     -0.383  0.8542E-01  0.6698E+00
     -0.139  0.8298E-01  0.6900E+00
      0.106  0.8077E-01  0.7098E+00
      0.350  0.7870E-01  0.7290E+00
      0.594  0.7678E-01  0.7477E+00
      0.839  0.7521E-01  0.7661E+00
      1.083  0.7377E-01  0.7841E+00
      1.327  0.7227E-01  0.8018E+00
      1.571  0.7143E-01  0.8192E+00
      1.816  0.7075E-01  0.8365E+00
      2.060  0.7193E-01  0.8541E+00
      2.304  0.1550E+00  0.8919E+00
      2.548  0.2942E+00  0.9638E+00
      2.793  0.1702E+00  0.1005E+01
      3.037  0.2059E+00  0.1056E+01
      3.281  0.4143E+00  0.1157E+01
      3.526  0.2766E+00  0.1224E+01
      3.770  0.2324E+00  0.1281E+01
      4.014  0.2089E+00  0.1332E+01
      4.258  0.1949E+00  0.1380E+01
      4.503  0.2117E+00  0.1432E+01
      4.747  0.9420E+00  0.1662E+01
      4.991  0.7149E+00  0.1836E+01
      5.236  0.5478E+00  0.1970E+01
      5.480  0.1250E+01  0.2275E+01
      5.724  0.1011E+01  0.2523E+01
      5.968  0.8303E+00  0.2725E+01
      6.213  0.5959E+00  0.2871E+01
      6.457  0.3772E+00  0.2963E+01
      6.701  0.3781E+00  0.3055E+01
      6.945  0.5789E+00  0.3197E+01
      7.190  0.4147E+00  0.3298E+01
      7.434  0.2710E+00  0.3364E+01
      7.678  0.2553E+00  0.3427E+01
      7.923  0.2449E+00  0.3486E+01
      8.167  0.2375E+00  0.3545E+01
      8.411  0.2923E+00  0.3616E+01
      8.655  0.4419E+00  0.3724E+01
      8.900  0.3535E+00  0.3810E+01
      9.144  0.3288E+00  0.3891E+01
      9.388  0.3148E+00  0.3967E+01
      9.632  0.3053E+00  0.4042E+01
      9.877  0.2986E+00  0.4115E+01
     10.121  0.2922E+00  0.4186E+01
     10.365  0.2860E+00  0.4256E+01
     10.610  0.2818E+00  0.4325E+01
     10.854  0.2784E+00  0.4393E+01
     11.098  0.2752E+00  0.4460E+01
     11.342  0.2723E+00  0.4527E+01
     11.587  0.2711E+00  0.4593E+01
     11.831  0.2717E+00  0.4659E+01
     12.075  0.2735E+00  0.4726E+01
     12.319  0.2773E+00  0.4794E+01
     12.564  0.2893E+00  0.4865E+01
     12.808  0.3320E+00  0.4946E+01
     13.052  0.1017E+01  0.5194E+01
     13.297  0.8331E+00  0.5397E+01
     13.541  0.5406E+00  0.5530E+01
     13.785  0.4535E+00  0.5640E+01
     14.029  0.3959E+00  0.5737E+01
     14.274  0.3691E+00  0.5827E+01
     14.518  0.6203E+00  0.5979E+01
     14.762  0.4772E+00  0.6095E+01
     15.006  0.4491E+00  0.6205E+01
     15.251  0.4577E+00  0.6317E+01
     15.495  0.4861E+00  0.6436E+01
     15.739  0.4976E+00  0.6557E+01
     15.984  0.4816E+00  0.6675E+01
     16.228  0.4580E+00  0.6787E+01
     16.472  0.5054E+00  0.6910E+01
     16.716  0.8208E+00  0.7111E+01
     16.961  0.5753E+00  0.7251E+01
     17.205  0.5070E+00  0.7375E+01
     17.449  0.4791E+00  0.7492E+01
     17.693  0.4662E+00  0.7606E+01
     17.938  0.4675E+00  0.7720E+01
     18.182  0.1023E+01  0.7970E+01
     18.426  0.1187E+01  0.8260E+01
     18.671  0.6082E+00  0.8408E+01
     18.915  0.5387E+00  0.8540E+01
     19.159  0.5045E+00  0.8663E+01
     19.403  0.4830E+00  0.8781E+01
     19.648  0.4724E+00  0.8897E+01
     19.892  0.4696E+00  0.9011E+01
     20.136  0.4745E+00  0.9127E+01
     20.380  0.5028E+00  0.9250E+01
     20.625  0.1046E+01  0.9506E+01
     20.869  0.1488E+01  0.9869E+01
     21.113  0.5346E+00  0.1000E+02
     21.358  0.4760E+00  0.1012E+02
     21.602  0.5113E+00  0.1024E+02
     21.846  0.9653E+00  0.1048E+02
     22.090  0.7451E+00  0.1066E+02
     22.335  0.6710E+00  0.1082E+02
     22.579  0.6700E+00  0.1099E+02
     22.823  0.1356E+01  0.1132E+02
     23.067  0.1088E+01  0.1158E+02
     23.312  0.6428E+00  0.1174E+02
     23.556  0.6561E+00  0.1190E+02
     23.800  0.7892E+00  0.1209E+02
     24.045  0.5723E+00  0.1223E+02
     24.289  0.4622E+00  0.1235E+02
     24.533  0.4953E+00  0.1247E+02
     24.777  0.5272E+00  0.1260E+02
     25.022  0.3077E+00  0.1267E+02
     25.266  0.2820E+00  0.1274E+02
     25.510  0.3419E+00  0.1282E+02
     25.755  0.4728E+00  0.1294E+02
     25.999  0.3749E+00  0.1303E+02
     26.243  0.3470E+00  0.1312E+02
     26.487  0.3622E+00  0.1320E+02
     26.732  0.6340E+00  0.1336E+02
     26.976  0.7559E+00  0.1354E+02
     27.220  0.9275E+00  0.1377E+02
     27.464  0.7429E+00  0.1395E+02
     27.709  0.7026E+00  0.1412E+02
     27.953  0.6996E+00  0.1429E+02
     28.197  0.7619E+00  0.1448E+02
     28.442  0.1030E+01  0.1473E+02
     28.686  0.7069E+00  0.1490E+02
     28.930  0.5717E+00  0.1504E+02
     29.174  0.4632E+00  0.1516E+02
     29.419  0.4584E+00  0.1527E+02
     29.663  0.4646E+00  0.1538E+02
     29.907  0.5091E+00  0.1551E+02
     30.151  0.4482E+00  0.1562E+02
     30.396  0.4331E+00  0.1572E+02
     30.640  0.3284E+00  0.1580E+02
     30.884  0.4135E+00  0.1590E+02
     31.129  0.4511E+00  0.1601E+02
     31.373  0.4476E+00  0.1612E+02
     31.617  0.6416E+00  0.1628E+02
     31.861  0.9379E+00  0.1651E+02
     32.106  0.7117E+00  0.1668E+02
     32.350  0.7044E+00  0.1685E+02
     32.594  0.6646E+00  0.1702E+02
     32.838  0.6658E+00  0.1718E+02
     33.083  0.6852E+00  0.1735E+02
     33.327  0.7299E+00  0.1753E+02
     33.571  0.8694E+00  0.1774E+02
     33.816  0.9034E+00  0.1796E+02
     34.060  0.7868E+00  0.1815E+02
     34.304  0.5852E+00  0.1829E+02
     34.548  0.3965E+00  0.1839E+02
     34.793  0.5098E+00  0.1851E+02
     35.037  0.1560E+01  0.1890E+02
     35.281  0.1068E+01  0.1916E+02
     35.525  0.1008E+01  0.1940E+02
     35.770  0.1998E+01  0.1989E+02
     36.014  0.9636E+00  0.2013E+02
     36.258  0.3606E+00  0.2021E+02
     36.503  0.3408E+00  0.2030E+02
     36.747  0.3252E+00  0.2038E+02
     36.991  0.3122E+00  0.2045E+02
     37.235  0.3015E+00  0.2053E+02
     37.480  0.2940E+00  0.2060E+02
     37.724  0.3029E+00  0.2067E+02
     37.968  0.3279E+00  0.2075E+02
     38.212  0.3189E+00  0.2083E+02
     38.457  0.3162E+00  0.2091E+02
     38.701  0.3116E+00  0.2098E+02
     38.945  0.3064E+00  0.2106E+02
     39.190  0.3065E+00  0.2113E+02
     39.434  0.3080E+00  0.2121E+02
     39.678  0.3067E+00  0.2128E+02
     39.922  0.3047E+00  0.2136E+02
     40.167  0.3054E+00  0.2143E+02
     40.411  0.3138E+00  0.2151E+02
     40.655  0.5588E+00  0.2165E+02
     40.899  0.1004E+01  0.2189E+02
     41.144  0.1006E+01  0.2214E+02
     41.388  0.6714E+00  0.2230E+02
     41.632  0.5905E+00  0.2245E+02
     41.877  0.6014E+00  0.2259E+02
     42.121  0.1571E+01  0.2298E+02
     42.365  0.9724E+00  0.2321E+02
     42.609  0.1227E+01  0.2351E+02
     42.854  0.1263E+01  0.2382E+02
     43.098  0.9213E+00  0.2405E+02
     43.342  0.1039E+01  0.2430E+02
     43.587  0.1292E+01  0.2462E+02
     43.831  0.1530E+01  0.2499E+02
     44.075  0.1446E+01  0.2534E+02
     44.319  0.1449E+01  0.2570E+02
     44.564  0.9772E+00  0.2594E+02
     44.808  0.6498E+00  0.2609E+02
     45.052  0.7136E+00  0.2627E+02
     45.296  0.1010E+01  0.2652E+02
     45.541  0.1231E+01  0.2682E+02
     45.785  0.1149E+01  0.2710E+02
     46.029  0.1130E+01  0.2737E+02
     46.274  0.5934E+00  0.2752E+02
     46.518  0.6734E+00  0.2768E+02
     46.762  0.5389E+00  0.2781E+02
     47.006  0.3483E+00  0.2790E+02
     47.251  0.3515E+00  0.2799E+02
     47.495  0.4176E+00  0.2809E+02
     47.739  0.3691E+00  0.2818E+02
     47.983  0.3448E+00  0.2826E+02
     48.228  0.3174E+00  0.2834E+02
     48.472  0.3155E+00  0.2842E+02
     48.716  0.6076E+00  0.2856E+02
     48.961  0.6196E+00  0.2872E+02
     49.205  0.8852E+00  0.2893E+02
     49.449  0.9236E+00  0.2916E+02
     49.693  0.7132E+00  0.2933E+02
     49.938  0.6637E+00  0.2949E+02
     50.182  0.5960E+00  0.2964E+02
     50.426  0.6198E+00  0.2979E+02
     50.670  0.1330E+01  0.3012E+02
     50.915  0.7393E+00  0.3030E+02
     51.159  0.7576E+00  0.3048E+02
     51.403  0.6300E+00  0.3064E+02
     51.648  0.6018E+00  0.3078E+02
     51.892  0.6763E+00  0.3095E+02
     52.136  0.6578E+00  0.3111E+02
     52.380  0.6383E+00  0.3126E+02
     52.625  0.5670E+00  0.3140E+02
     52.869  0.2222E+00  0.3146E+02
     53.113  0.1159E+00  0.3149E+02
     53.357  0.1153E+00  0.3151E+02
     53.602  0.8623E-01  0.3153E+02
     53.846  0.9266E-01  0.3156E+02
     54.090  0.8900E-01  0.3158E+02
     54.335  0.1064E+00  0.3161E+02
     54.579  0.1368E+00  0.3164E+02
     54.823  0.1331E+00  0.3167E+02
     55.067  0.3665E-01  0.3168E+02
     55.312  0.2791E-01  0.3169E+02
     55.556  0.3757E-01  0.3170E+02
     55.800  0.3106E-01  0.3170E+02
     56.044  0.3398E-01  0.3171E+02
     56.289  0.3529E-01  0.3172E+02
     56.533  0.2769E-01  0.3173E+02
     56.777  0.3593E-01  0.3174E+02
     57.022  0.2864E-01  0.3174E+02
     57.266  0.3382E-01  0.3175E+02
     57.510  0.3584E-01  0.3176E+02
     57.754  0.2995E-01  0.3177E+02
     57.999  0.3822E-01  0.3178E+02
     58.243  0.3186E-01  0.3178E+02
     58.487  0.3316E-01  0.3179E+02
     58.731  0.3725E-01  0.3180E+02
     58.976  0.3029E-01  0.3181E+02
     59.220  0.3616E-01  0.3182E+02
     59.464  0.3777E-01  0.3183E+02
     59.709  0.3275E-01  0.3184E+02
     59.953  0.3784E-01  0.3184E+02
     60.197  0.4063E-01  0.3185E+02
     60.441  0.3854E-01  0.3186E+02
     60.686  0.3985E-01  0.3187E+02
     60.930  0.4428E-01  0.3188E+02
     61.174  0.4751E-01  0.3190E+02
     61.419  0.5108E-01  0.3191E+02
     61.663  0.5838E-01  0.3192E+02
     61.907  0.7180E-01  0.3194E+02
     62.151  0.1149E+00  0.3197E+02
     62.396  0.1289E+00  0.3200E+02
     62.640  0.1127E-02  0.3200E+02
     62.884  0.4829E-09  0.3200E+02
     63.128  0.0000E+00  0.3200E+02
     63.373  0.0000E+00  0.3200E+02
     63.617  0.0000E+00  0.3200E+02
     63.861  0.0000E+00  0.3200E+02
     64.106  0.0000E+00  0.3200E+02
     64.350  0.0000E+00  0.3200E+02
     64.594  0.0000E+00  0.3200E+02
     64.838  0.0000E+00  0.3200E+02
     65.083  0.0000E+00  0.3200E+02
     65.327  0.0000E+00  0.3200E+02
     65.571  0.0000E+00  0.3200E+02
