 vasp.5.4.1 24Jun15 (build May 02 2016 14:41:14) complex                        
  
 executed on           IFC91_ompi date 2022.05.07  12:49:32
 running on   16 total cores
 distrk:  each k-point on   16 cores,    1 groups
 distr:  one band on NCORES_PER_BAND=   1 cores,   16 groups


--------------------------------------------------------------------------------------------------------


 INCAR:
 POTCAR:   PAW_PBE Si 05Jan2001                   

 ----------------------------------------------------------------------------- 
|                                                                             |
|           W    W    AA    RRRRR   N    N  II  N    N   GGGG   !!!           |
|           W    W   A  A   R    R  NN   N  II  NN   N  G    G  !!!           |
|           W    W  A    A  R    R  N N  N  II  N N  N  G       !!!           |
|           W WW W  AAAAAA  RRRRR   N  N N  II  N  N N  G  GGG   !            |
|           WW  WW  A    A  R   R   N   NN  II  N   NN  G    G                |
|           W    W  A    A  R    R  N    N  II  N    N   GGGG   !!!           |
|                                                                             |
|      For optimal performance we recommend to set                            |
|        NCORE= 4 - approx SQRT( number of cores)                             |
|      NCORE specifies how many cores store one orbital (NPAR=cpu/NCORE).     |
|      This setting can  greatly improve the performance of VASP for DFT.     |
|      The default, NPAR=number of cores might be grossly inefficient         |
|      on modern multi-core architectures or massively parallel machines.     |
|      Do your own testing !!!!                                               |
|      Unfortunately you need to use the default for GW and RPA calculations. |
|      (for HF NCORE is supported but not extensively tested yet)             |
|                                                                             |
 ----------------------------------------------------------------------------- 

 POTCAR:   PAW_PBE Si 05Jan2001                   
   VRHFIN =Si: s2p2                                                             
   LEXCH  = PE                                                                  
   EATOM  =   103.0669 eV,    7.5752 Ry                                         
                                                                                
   TITEL  = PAW_PBE Si 05Jan2001                                                
   LULTRA =        F    use ultrasoft PP ?                                      
   IUNSCR =        1    unscreen: 0-lin 1-nonlin 2-no                           
   RPACOR =    1.500    partial core radius                                     
   POMASS =   28.085; ZVAL   =    4.000    mass and valenz                      
   RCORE  =    1.900    outmost cutoff radius                                   
   RWIGS  =    2.480; RWIGS  =    1.312    wigner-seitz radius (au A)           
   ENMAX  =  245.345; ENMIN  =  184.009 eV                                      
   ICORE  =        2    local potential                                         
   LCOR   =        T    correct aug charges                                     
   LPAW   =        T    paw PP                                                  
   EAUG   =  322.069                                                            
   DEXC   =    -.007                                                            
   RMAX   =    2.944    core radius for proj-oper                               
   RAUG   =    1.300    factor for augmentation sphere                          
   RDEP   =    1.993    radius for radial grids                                 
   QCUT   =   -4.246; QGAM   =    8.493    optimization parameters              
                                                                                
   Description                                                                  
     l     E      TYP  RCUT    TYP  RCUT                                        
     0   .000     23  1.900                                                     
     0   .000     23  1.900                                                     
     1   .000     23  1.900                                                     
     1   .000     23  1.900                                                     
     2   .000      7  1.900                                                     
  local pseudopotential read in
  partial core-charges read in
  atomic valenz-charges read in
  non local Contribution for L=           0  read in
    real space projection operators read in
  non local Contribution for L=           0  read in
    real space projection operators read in
  non local Contribution for L=           1  read in
    real space projection operators read in
  non local Contribution for L=           1  read in
    real space projection operators read in
    PAW grid and wavefunctions read in
 
   number of l-projection  operators is LMAX  =           4
   number of lm-projection operators is LMMAX =           8
 
 PAW_PBE Si 05Jan2001                   :
 energy of atom  1       EATOM= -103.0669
 kinetic energy error for atom=    0.0006 (will be added to EATOM!!)
 
 
 POSCAR: FCC Silicon                             
  positions in cartesian coordinates
  No initial velocities read in
 exchange correlation table for  LEXCH =        8
   RHO(1)=    0.500       N(1)  =     2000
   RHO(2)=  100.500       N(2)  =     4000
 


--------------------------------------------------------------------------------------------------------


 ion  position               nearest neighbor table
   1  0.000  0.000  0.000-
 
  LATTYP: Found a face centered cubic cell.
 ALAT       =     3.9000000000
  
  Lattice vectors:
  
 A1 = (   1.9500000000,   1.9500000000,   0.0000000000)
 A2 = (   0.0000000000,   1.9500000000,   1.9500000000)
 A3 = (   1.9500000000,   0.0000000000,   1.9500000000)


Analysis of symmetry for initial positions (statically):
=====================================================================
 Subroutine PRICEL returns:
 Original cell was already a primitive cell.
 

 Routine SETGRP: Setting up the symmetry group for a 
 face centered cubic supercell.


 Subroutine GETGRP returns: Found 48 space group operations
 (whereof 48 operations were pure point group operations)
 out of a pool of 48 trial point group operations.


The static configuration has the point symmetry O_h .


Analysis of symmetry for dynamics (positions and initial velocities):
=====================================================================
 Subroutine PRICEL returns:
 Original cell was already a primitive cell.
 

 Routine SETGRP: Setting up the symmetry group for a 
 face centered cubic supercell.


 Subroutine GETGRP returns: Found 48 space group operations
 (whereof 48 operations were pure point group operations)
 out of a pool of 48 trial point group operations.


The dynamic configuration has the point symmetry O_h .
 
 
 KPOINTS: kpoints for bandstructure GAMMA-X-U|K-GA
  interpolating k-points between supplied coordinates
  k-points in reciprocal lattice
Space group operators:
 irot       det(A)        alpha          n_x          n_y          n_z        tau_x        tau_y        tau_z
    1     1.000000     0.000000     1.000000     0.000000     0.000000     0.000000     0.000000     0.000000
    2    -1.000000     0.000000     1.000000     0.000000     0.000000     0.000000     0.000000     0.000000
    3     1.000000   120.000000    -0.577350    -0.577350    -0.577350     0.000000     0.000000     0.000000
    4    -1.000000   120.000000    -0.577350    -0.577350    -0.577350     0.000000     0.000000     0.000000
    5     1.000000   120.000000     0.577350     0.577350     0.577350     0.000000     0.000000     0.000000
    6    -1.000000   120.000000     0.577350     0.577350     0.577350     0.000000     0.000000     0.000000
    7     1.000000    90.000000     0.000000    -1.000000     0.000000     0.000000     0.000000     0.000000
    8    -1.000000    90.000000     0.000000    -1.000000     0.000000     0.000000     0.000000     0.000000
    9     1.000000   180.000000     0.707107     0.707107     0.000000     0.000000     0.000000     0.000000
   10    -1.000000   180.000000     0.707107     0.707107     0.000000     0.000000     0.000000     0.000000
   11     1.000000    90.000000     1.000000     0.000000     0.000000     0.000000     0.000000     0.000000
   12    -1.000000    90.000000     1.000000     0.000000     0.000000     0.000000     0.000000     0.000000
   13     1.000000   180.000000     0.000000     1.000000     0.000000     0.000000     0.000000     0.000000
   14    -1.000000   180.000000     0.000000     1.000000     0.000000     0.000000     0.000000     0.000000
   15     1.000000   120.000000     0.577350     0.577350    -0.577350     0.000000     0.000000     0.000000
   16    -1.000000   120.000000     0.577350     0.577350    -0.577350     0.000000     0.000000     0.000000
   17     1.000000   120.000000     0.577350    -0.577350    -0.577350     0.000000     0.000000     0.000000
   18    -1.000000   120.000000     0.577350    -0.577350    -0.577350     0.000000     0.000000     0.000000
   19     1.000000    90.000000     0.000000     1.000000     0.000000     0.000000     0.000000     0.000000
   20    -1.000000    90.000000     0.000000     1.000000     0.000000     0.000000     0.000000     0.000000
   21     1.000000    90.000000     0.000000     0.000000    -1.000000     0.000000     0.000000     0.000000
   22    -1.000000    90.000000     0.000000     0.000000    -1.000000     0.000000     0.000000     0.000000
   23     1.000000   180.000000     0.000000     0.707107     0.707107     0.000000     0.000000     0.000000
   24    -1.000000   180.000000     0.000000     0.707107     0.707107     0.000000     0.000000     0.000000
   25     1.000000   120.000000    -0.577350     0.577350     0.577350     0.000000     0.000000     0.000000
   26    -1.000000   120.000000    -0.577350     0.577350     0.577350     0.000000     0.000000     0.000000
   27     1.000000   120.000000    -0.577350     0.577350    -0.577350     0.000000     0.000000     0.000000
   28    -1.000000   120.000000    -0.577350     0.577350    -0.577350     0.000000     0.000000     0.000000
   29     1.000000   179.999999     0.000000     0.000000     1.000000     0.000000     0.000000     0.000000
   30    -1.000000   179.999999     0.000000     0.000000     1.000000     0.000000     0.000000     0.000000
   31     1.000000    90.000000    -1.000000     0.000000     0.000000     0.000000     0.000000     0.000000
   32    -1.000000    90.000000    -1.000000     0.000000     0.000000     0.000000     0.000000     0.000000
   33     1.000000   180.000000     0.707107     0.000000     0.707107     0.000000     0.000000     0.000000
   34    -1.000000   180.000000     0.707107     0.000000     0.707107     0.000000     0.000000     0.000000
   35     1.000000    90.000000     0.000000     0.000000     1.000000     0.000000     0.000000     0.000000
   36    -1.000000    90.000000     0.000000     0.000000     1.000000     0.000000     0.000000     0.000000
   37     1.000000   120.000000    -0.577350    -0.577350     0.577350     0.000000     0.000000     0.000000
   38    -1.000000   120.000000    -0.577350    -0.577350     0.577350     0.000000     0.000000     0.000000
   39     1.000000   180.000000     1.000000     0.000000     0.000000     0.000000     0.000000     0.000000
   40    -1.000000   180.000000     1.000000     0.000000     0.000000     0.000000     0.000000     0.000000
   41     1.000000   120.000000     0.577350    -0.577350     0.577350     0.000000     0.000000     0.000000
   42    -1.000000   120.000000     0.577350    -0.577350     0.577350     0.000000     0.000000     0.000000
   43     1.000000   180.000000     0.707107    -0.707107     0.000000     0.000000     0.000000     0.000000
   44    -1.000000   180.000000     0.707107    -0.707107     0.000000     0.000000     0.000000     0.000000
   45     1.000000   180.000000     0.707107     0.000000    -0.707107     0.000000     0.000000     0.000000
   46    -1.000000   180.000000     0.707107     0.000000    -0.707107     0.000000     0.000000     0.000000
   47     1.000000   180.000000     0.000000    -0.707107     0.707107     0.000000     0.000000     0.000000
   48    -1.000000   180.000000     0.000000    -0.707107     0.707107     0.000000     0.000000     0.000000


--------------------------------------------------------------------------------------------------------




 Dimension of arrays:
   k-points           NKPTS =    600   k-points in BZ     NKDIM =    600   number of bands    NBANDS=     16
   number of dos      NEDOS =    301   number of ions     NIONS =      1
   non local maximal  LDIM  =      4   non local SUM 2l+1 LMDIM =      8
   total plane-waves  NPLWV =   4096
   max r-space proj   IRMAX =      1   max aug-charges    IRDMAX=   9433
   dimension x,y,z NGX =    16 NGY =   16 NGZ =   16
   dimension x,y,z NGXF=    32 NGYF=   32 NGZF=   32
   support grid    NGXF=    32 NGYF=   32 NGZF=   32
   ions per type =               1
 NGX,Y,Z   is equivalent  to a cutoff of   9.65,  9.65,  9.65 a.u.
 NGXF,Y,Z  is equivalent  to a cutoff of  19.29, 19.29, 19.29 a.u.


 I would recommend the setting:
   dimension x,y,z NGX =    15 NGY =   15 NGZ =   15
 SYSTEM =  FCC Silicon                             
 POSCAR =  FCC Silicon                             

 Startparameter for this run:
   NWRITE =      2    write-flag & timer
   PREC   = normal    normal or accurate (medium, high low for compatibility)
   ISTART =      0    job   : 0-new  1-cont  2-samecut
   ICHARG =      2    charge: 1-file 2-atom 10-const
   ISPIN  =      1    spin polarized calculation?
   LNONCOLLINEAR =      F non collinear calculations
   LSORBIT =      F    spin-orbit coupling
   INIWAV =      1    electr: 0-lowe 1-rand  2-diag
   LASPH  =      F    aspherical Exc in radial PAW
   METAGGA=      F    non-selfconsistent MetaGGA calc.

 Electronic Relaxation 1
   ENCUT  =  500.0 eV  36.75 Ry    6.06 a.u.   5.03  5.03  5.03*2*pi/ulx,y,z
   ENINI  =  500.0     initial cutoff
   ENAUG  =  322.1 eV  augmentation charge cutoff
   NELM   =    100;   NELMIN=  4; NELMDL= -5     # of ELM steps 
   EDIFF  = 0.1E-05   stopping-criterion for ELM
   LREAL  =      F    real-space projection
   NLSPLINE    = F    spline interpolate recip. space projectors
   LCOMPAT=      F    compatible to vasp.4.4
   GGA_COMPAT  = T    GGA compatible to vasp.4.4-vasp.4.6
   LMAXPAW     = -100 max onsite density
   LMAXMIX     =    2 max onsite mixed and CHGCAR
   VOSKOWN=      0    Vosko Wilk Nusair interpolation
   ROPT   =    0.00000
 Ionic relaxation
   EDIFFG = 0.1E-04   stopping-criterion for IOM
   NSW    =      0    number of steps for IOM
   NBLOCK =      1;   KBLOCK =      1    inner block; outer block 
   IBRION =     -1    ionic relax: 0-MD 1-quasi-New 2-CG
   NFREE  =      0    steps in history (QN), initial steepest desc. (CG)
   ISIF   =      2    stress and relaxation
   IWAVPR =     10    prediction:  0-non 1-charg 2-wave 3-comb
   ISYM   =      2    0-nonsym 1-usesym 2-fastsym
   LCORR  =      T    Harris-Foulkes like correction to forces

   POTIM  = 0.5000    time-step for ionic-motion
   TEIN   =    0.0    initial temperature
   TEBEG  =    0.0;   TEEND  =   0.0 temperature during run
   SMASS  =  -3.00    Nose mass-parameter (am)
   estimated Nose-frequenzy (Omega)   =  0.10E-29 period in steps =****** mass=  -0.174E-27a.u.
   SCALEE = 1.0000    scale energy and forces
   NPACO  =    256;   APACO  = 16.0  distance and # of slots for P.C.
   PSTRESS=    0.0 pullay stress

  Mass of Ions in am
   POMASS =  28.09
  Ionic Valenz
   ZVAL   =   4.00
  Atomic Wigner-Seitz radii
   RWIGS  =  -1.00
  virtual crystal weights 
   VCA    =   1.00
   NELECT =       4.0000    total number of electrons
   NUPDOWN=      -1.0000    fix difference up-down

 DOS related values:
   EMIN   =  10.00;   EMAX   =-10.00  energy-range for DOS
   EFERMI =   0.00
   ISMEAR =     0;   SIGMA  =   0.10  broadening in eV -4-tet -1-fermi 0-gaus

 Electronic relaxation 2 (details)
   IALGO  =     38    algorithm
   LDIAG  =      T    sub-space diagonalisation (order eigenvalues)
   LSUBROT=      F    optimize rotation matrix (better conditioning)
   TURBO    =      0    0=normal 1=particle mesh
   IRESTART =      0    0=no restart 2=restart with 2 vectors
   NREBOOT  =      0    no. of reboots
   NMIN     =      0    reboot dimension
   EREF     =   0.00    reference energy to select bands
   IMIX   =      4    mixing-type and parameters
     AMIX     =   0.40;   BMIX     =  1.00
     AMIX_MAG =   1.60;   BMIX_MAG =  1.00
     AMIN     =   0.10
     WC   =   100.;   INIMIX=   1;  MIXPRE=   1;  MAXMIX= -45

 Intra band minimization:
   WEIMIN = 0.0000     energy-eigenvalue tresh-hold
   EBREAK =  0.16E-07  absolut break condition
   DEPER  =   0.30     relativ break condition  

   TIME   =   0.40     timestep for ELM

  volume/ion in A,a.u.               =      14.83       100.08
  Fermi-wavevector in a.u.,A,eV,Ry     =   1.057751  1.998860 15.222711  1.118838
  Thomas-Fermi vector in A             =   2.193036
 
 Write flags
   LWAVE  =      T    write WAVECAR
   LCHARG =      T    write CHGCAR
   LVTOT  =      F    write LOCPOT, total local potential
   LVHAR  =      F    write LOCPOT, Hartree potential only
   LELF   =      F    write electronic localiz. function (ELF)
   LORBIT =      0    0 simple, 1 ext, 2 COOP (PROOUT)


 Dipole corrections
   LMONO  =      F    monopole corrections only (constant potential shift)
   LDIPOL =      F    correct potential (dipole corrections)
   IDIPOL =      0    1-x, 2-y, 3-z, 4-all directions 
   EPSILON=  1.0000000 bulk dielectric constant

 Exchange correlation treatment:
   GGA     =    --    GGA type
   LEXCH   =     8    internal setting for exchange type
   VOSKOWN=      0    Vosko Wilk Nusair interpolation
   LHFCALC =     F    Hartree Fock is set to
   LHFONE  =     F    Hartree Fock one center treatment
   AEXX    =    0.0000 exact exchange contribution

 Linear response parameters
   LEPSILON=     F    determine dielectric tensor
   LRPA    =     F    only Hartree local field effects (RPA)
   LNABLA  =     F    use nabla operator in PAW spheres
   LVEL    =     F    velocity operator in full k-point grid
   LINTERFAST=   F  fast interpolation
   KINTER  =     0    interpolate to denser k-point grid
   CSHIFT  =0.1000    complex shift for real part using Kramers Kronig
   OMEGAMAX=  -1.0    maximum frequency
   DEG_THRESHOLD= 0.2000000E-02 threshold for treating states as degnerate
   RTIME   =    0.100 relaxation time in fs

 Orbital magnetization related:
   ORBITALMAG=     F  switch on orbital magnetization
   LCHIMAG   =     F  perturbation theory with respect to B field
   DQ        =  0.001000  dq finite difference perturbation B field



--------------------------------------------------------------------------------------------------------


 Static calculation
 charge density and potential will be updated during run
 non-spin polarized calculation
 Variant of blocked Davidson
 Davidson routine will perform the subspace rotation
 perform sub-space diagonalisation
    after iterative eigenvector-optimisation
 modified Broyden-mixing scheme, WC =      100.0
 initial mixing is a Kerker type mixing with AMIX =  0.4000 and BMIX =      1.0000
 Hartree-type preconditioning will be used
 using additional bands           14
 reciprocal scheme for non local part
 use partial core corrections
 calculate Harris-corrections to forces 
   (improved forces if not selfconsistent)
 use gradient corrections 
 use of overlap-Matrix (Vanderbilt PP)
 Gauss-broadening in eV      SIGMA  =   0.10


--------------------------------------------------------------------------------------------------------


  energy-cutoff  :      500.00
  volume of cell :       14.83
      direct lattice vectors                 reciprocal lattice vectors
     1.950000000  1.950000000  0.000000000     0.256410256  0.256410256 -0.256410256
     0.000000000  1.950000000  1.950000000    -0.256410256  0.256410256  0.256410256
     1.950000000  0.000000000  1.950000000     0.256410256 -0.256410256  0.256410256

  length of vectors
     2.757716447  2.757716447  2.757716447     0.444115592  0.444115592  0.444115592


 
 k-points in units of 2pi/SCALE and weight: kpoints for bandstructure GAMMA-X-U|K-GA
   0.00000000  0.00000000  0.00000000       0.002
   0.01010101  0.00000000  0.00000000       0.002
   0.02020202  0.00000000  0.00000000       0.002
   0.03030303  0.00000000  0.00000000       0.002
   0.04040404  0.00000000  0.00000000       0.002
   0.05050505  0.00000000  0.00000000       0.002
   0.06060606  0.00000000  0.00000000       0.002
   0.07070707  0.00000000  0.00000000       0.002
   0.08080808  0.00000000  0.00000000       0.002
   0.09090909  0.00000000  0.00000000       0.002
   0.10101010  0.00000000  0.00000000       0.002
   0.11111111  0.00000000  0.00000000       0.002
   0.12121212  0.00000000  0.00000000       0.002
   0.13131313  0.00000000  0.00000000       0.002
   0.14141414  0.00000000  0.00000000       0.002
   0.15151515  0.00000000  0.00000000       0.002
   0.16161616  0.00000000  0.00000000       0.002
   0.17171717  0.00000000  0.00000000       0.002
   0.18181818  0.00000000  0.00000000       0.002
   0.19191919  0.00000000  0.00000000       0.002
   0.20202020  0.00000000  0.00000000       0.002
   0.21212121  0.00000000  0.00000000       0.002
   0.22222222  0.00000000  0.00000000       0.002
   0.23232323  0.00000000  0.00000000       0.002
   0.24242424  0.00000000  0.00000000       0.002
   0.25252525  0.00000000  0.00000000       0.002
   0.26262626  0.00000000  0.00000000       0.002
   0.27272727  0.00000000  0.00000000       0.002
   0.28282828  0.00000000  0.00000000       0.002
   0.29292929  0.00000000  0.00000000       0.002
   0.30303030  0.00000000  0.00000000       0.002
   0.31313131  0.00000000  0.00000000       0.002
   0.32323232  0.00000000  0.00000000       0.002
   0.33333333  0.00000000  0.00000000       0.002
   0.34343434  0.00000000  0.00000000       0.002
   0.35353535  0.00000000  0.00000000       0.002
   0.36363636  0.00000000  0.00000000       0.002
   0.37373737  0.00000000  0.00000000       0.002
   0.38383838  0.00000000  0.00000000       0.002
   0.39393939  0.00000000  0.00000000       0.002
   0.40404040  0.00000000  0.00000000       0.002
   0.41414141  0.00000000  0.00000000       0.002
   0.42424242  0.00000000  0.00000000       0.002
   0.43434343  0.00000000  0.00000000       0.002
   0.44444444  0.00000000  0.00000000       0.002
   0.45454545  0.00000000  0.00000000       0.002
   0.46464646  0.00000000  0.00000000       0.002
   0.47474747  0.00000000  0.00000000       0.002
   0.48484848  0.00000000  0.00000000       0.002
   0.49494949  0.00000000  0.00000000       0.002
   0.50505051  0.00000000  0.00000000       0.002
   0.51515152  0.00000000  0.00000000       0.002
   0.52525253  0.00000000  0.00000000       0.002
   0.53535354  0.00000000  0.00000000       0.002
   0.54545455  0.00000000  0.00000000       0.002
   0.55555556  0.00000000  0.00000000       0.002
   0.56565657  0.00000000  0.00000000       0.002
   0.57575758  0.00000000  0.00000000       0.002
   0.58585859  0.00000000  0.00000000       0.002
   0.59595960  0.00000000  0.00000000       0.002
   0.60606061  0.00000000  0.00000000       0.002
   0.61616162  0.00000000  0.00000000       0.002
   0.62626263  0.00000000  0.00000000       0.002
   0.63636364  0.00000000  0.00000000       0.002
   0.64646465  0.00000000  0.00000000       0.002
   0.65656566  0.00000000  0.00000000       0.002
   0.66666667  0.00000000  0.00000000       0.002
   0.67676768  0.00000000  0.00000000       0.002
   0.68686869  0.00000000  0.00000000       0.002
   0.69696970  0.00000000  0.00000000       0.002
   0.70707071  0.00000000  0.00000000       0.002
   0.71717172  0.00000000  0.00000000       0.002
   0.72727273  0.00000000  0.00000000       0.002
   0.73737374  0.00000000  0.00000000       0.002
   0.74747475  0.00000000  0.00000000       0.002
   0.75757576  0.00000000  0.00000000       0.002
   0.76767677  0.00000000  0.00000000       0.002
   0.77777778  0.00000000  0.00000000       0.002
   0.78787879  0.00000000  0.00000000       0.002
   0.79797980  0.00000000  0.00000000       0.002
   0.80808081  0.00000000  0.00000000       0.002
   0.81818182  0.00000000  0.00000000       0.002
   0.82828283  0.00000000  0.00000000       0.002
   0.83838384  0.00000000  0.00000000       0.002
   0.84848485  0.00000000  0.00000000       0.002
   0.85858586  0.00000000  0.00000000       0.002
   0.86868687  0.00000000  0.00000000       0.002
   0.87878788  0.00000000  0.00000000       0.002
   0.88888889  0.00000000  0.00000000       0.002
   0.89898990  0.00000000  0.00000000       0.002
   0.90909091  0.00000000  0.00000000       0.002
   0.91919192  0.00000000  0.00000000       0.002
   0.92929293  0.00000000  0.00000000       0.002
   0.93939394  0.00000000  0.00000000       0.002
   0.94949495  0.00000000  0.00000000       0.002
   0.95959596  0.00000000  0.00000000       0.002
   0.96969697  0.00000000  0.00000000       0.002
   0.97979798  0.00000000  0.00000000       0.002
   0.98989899  0.00000000  0.00000000       0.002
   1.00000000  0.00000000  0.00000000       0.002
   1.00000000  0.00000000  0.00000000       0.002
   1.00000000  0.00252525  0.00252525       0.002
   1.00000000  0.00505051  0.00505051       0.002
   1.00000000  0.00757576  0.00757576       0.002
   1.00000000  0.01010101  0.01010101       0.002
   1.00000000  0.01262626  0.01262626       0.002
   1.00000000  0.01515152  0.01515152       0.002
   1.00000000  0.01767677  0.01767677       0.002
   1.00000000  0.02020202  0.02020202       0.002
   1.00000000  0.02272727  0.02272727       0.002
   1.00000000  0.02525253  0.02525253       0.002
   1.00000000  0.02777778  0.02777778       0.002
   1.00000000  0.03030303  0.03030303       0.002
   1.00000000  0.03282828  0.03282828       0.002
   1.00000000  0.03535354  0.03535354       0.002
   1.00000000  0.03787879  0.03787879       0.002
   1.00000000  0.04040404  0.04040404       0.002
   1.00000000  0.04292929  0.04292929       0.002
   1.00000000  0.04545455  0.04545455       0.002
   1.00000000  0.04797980  0.04797980       0.002
   1.00000000  0.05050505  0.05050505       0.002
   1.00000000  0.05303030  0.05303030       0.002
   1.00000000  0.05555556  0.05555556       0.002
   1.00000000  0.05808081  0.05808081       0.002
   1.00000000  0.06060606  0.06060606       0.002
   1.00000000  0.06313131  0.06313131       0.002
   1.00000000  0.06565657  0.06565657       0.002
   1.00000000  0.06818182  0.06818182       0.002
   1.00000000  0.07070707  0.07070707       0.002
   1.00000000  0.07323232  0.07323232       0.002
   1.00000000  0.07575758  0.07575758       0.002
   1.00000000  0.07828283  0.07828283       0.002
   1.00000000  0.08080808  0.08080808       0.002
   1.00000000  0.08333333  0.08333333       0.002
   1.00000000  0.08585859  0.08585859       0.002
   1.00000000  0.08838384  0.08838384       0.002
   1.00000000  0.09090909  0.09090909       0.002
   1.00000000  0.09343434  0.09343434       0.002
   1.00000000  0.09595960  0.09595960       0.002
   1.00000000  0.09848485  0.09848485       0.002
   1.00000000  0.10101010  0.10101010       0.002
   1.00000000  0.10353535  0.10353535       0.002
   1.00000000  0.10606061  0.10606061       0.002
   1.00000000  0.10858586  0.10858586       0.002
   1.00000000  0.11111111  0.11111111       0.002
   1.00000000  0.11363636  0.11363636       0.002
   1.00000000  0.11616162  0.11616162       0.002
   1.00000000  0.11868687  0.11868687       0.002
   1.00000000  0.12121212  0.12121212       0.002
   1.00000000  0.12373737  0.12373737       0.002
   1.00000000  0.12626263  0.12626263       0.002
   1.00000000  0.12878788  0.12878788       0.002
   1.00000000  0.13131313  0.13131313       0.002
   1.00000000  0.13383838  0.13383838       0.002
   1.00000000  0.13636364  0.13636364       0.002
   1.00000000  0.13888889  0.13888889       0.002
   1.00000000  0.14141414  0.14141414       0.002
   1.00000000  0.14393939  0.14393939       0.002
   1.00000000  0.14646465  0.14646465       0.002
   1.00000000  0.14898990  0.14898990       0.002
   1.00000000  0.15151515  0.15151515       0.002
   1.00000000  0.15404040  0.15404040       0.002
   1.00000000  0.15656566  0.15656566       0.002
   1.00000000  0.15909091  0.15909091       0.002
   1.00000000  0.16161616  0.16161616       0.002
   1.00000000  0.16414141  0.16414141       0.002
   1.00000000  0.16666667  0.16666667       0.002
   1.00000000  0.16919192  0.16919192       0.002
   1.00000000  0.17171717  0.17171717       0.002
   1.00000000  0.17424242  0.17424242       0.002
   1.00000000  0.17676768  0.17676768       0.002
   1.00000000  0.17929293  0.17929293       0.002
   1.00000000  0.18181818  0.18181818       0.002
   1.00000000  0.18434343  0.18434343       0.002
   1.00000000  0.18686869  0.18686869       0.002
   1.00000000  0.18939394  0.18939394       0.002
   1.00000000  0.19191919  0.19191919       0.002
   1.00000000  0.19444444  0.19444444       0.002
   1.00000000  0.19696970  0.19696970       0.002
   1.00000000  0.19949495  0.19949495       0.002
   1.00000000  0.20202020  0.20202020       0.002
   1.00000000  0.20454545  0.20454545       0.002
   1.00000000  0.20707071  0.20707071       0.002
   1.00000000  0.20959596  0.20959596       0.002
   1.00000000  0.21212121  0.21212121       0.002
   1.00000000  0.21464646  0.21464646       0.002
   1.00000000  0.21717172  0.21717172       0.002
   1.00000000  0.21969697  0.21969697       0.002
   1.00000000  0.22222222  0.22222222       0.002
   1.00000000  0.22474747  0.22474747       0.002
   1.00000000  0.22727273  0.22727273       0.002
   1.00000000  0.22979798  0.22979798       0.002
   1.00000000  0.23232323  0.23232323       0.002
   1.00000000  0.23484848  0.23484848       0.002
   1.00000000  0.23737374  0.23737374       0.002
   1.00000000  0.23989899  0.23989899       0.002
   1.00000000  0.24242424  0.24242424       0.002
   1.00000000  0.24494949  0.24494949       0.002
   1.00000000  0.24747475  0.24747475       0.002
   1.00000000  0.25000000  0.25000000       0.002
   0.75000000  0.00000000  0.75000000       0.002
   0.74242424  0.00000000  0.74242424       0.002
   0.73484848  0.00000000  0.73484848       0.002
   0.72727273  0.00000000  0.72727273       0.002
   0.71969697  0.00000000  0.71969697       0.002
   0.71212121  0.00000000  0.71212121       0.002
   0.70454545  0.00000000  0.70454545       0.002
   0.69696970  0.00000000  0.69696970       0.002
   0.68939394  0.00000000  0.68939394       0.002
   0.68181818  0.00000000  0.68181818       0.002
   0.67424242  0.00000000  0.67424242       0.002
   0.66666667  0.00000000  0.66666667       0.002
   0.65909091  0.00000000  0.65909091       0.002
   0.65151515  0.00000000  0.65151515       0.002
   0.64393939  0.00000000  0.64393939       0.002
   0.63636364  0.00000000  0.63636364       0.002
   0.62878788  0.00000000  0.62878788       0.002
   0.62121212  0.00000000  0.62121212       0.002
   0.61363636  0.00000000  0.61363636       0.002
   0.60606061  0.00000000  0.60606061       0.002
   0.59848485  0.00000000  0.59848485       0.002
   0.59090909  0.00000000  0.59090909       0.002
   0.58333333  0.00000000  0.58333333       0.002
   0.57575758  0.00000000  0.57575758       0.002
   0.56818182  0.00000000  0.56818182       0.002
   0.56060606  0.00000000  0.56060606       0.002
   0.55303030  0.00000000  0.55303030       0.002
   0.54545455  0.00000000  0.54545455       0.002
   0.53787879  0.00000000  0.53787879       0.002
   0.53030303  0.00000000  0.53030303       0.002
   0.52272727  0.00000000  0.52272727       0.002
   0.51515152  0.00000000  0.51515152       0.002
   0.50757576  0.00000000  0.50757576       0.002
   0.50000000  0.00000000  0.50000000       0.002
   0.49242424  0.00000000  0.49242424       0.002
   0.48484848  0.00000000  0.48484848       0.002
   0.47727273  0.00000000  0.47727273       0.002
   0.46969697  0.00000000  0.46969697       0.002
   0.46212121  0.00000000  0.46212121       0.002
   0.45454545  0.00000000  0.45454545       0.002
   0.44696970  0.00000000  0.44696970       0.002
   0.43939394  0.00000000  0.43939394       0.002
   0.43181818  0.00000000  0.43181818       0.002
   0.42424242  0.00000000  0.42424242       0.002
   0.41666667  0.00000000  0.41666667       0.002
   0.40909091  0.00000000  0.40909091       0.002
   0.40151515  0.00000000  0.40151515       0.002
   0.39393939  0.00000000  0.39393939       0.002
   0.38636364  0.00000000  0.38636364       0.002
   0.37878788  0.00000000  0.37878788       0.002
   0.37121212  0.00000000  0.37121212       0.002
   0.36363636  0.00000000  0.36363636       0.002
   0.35606061  0.00000000  0.35606061       0.002
   0.34848485  0.00000000  0.34848485       0.002
   0.34090909  0.00000000  0.34090909       0.002
   0.33333333  0.00000000  0.33333333       0.002
   0.32575758  0.00000000  0.32575758       0.002
   0.31818182  0.00000000  0.31818182       0.002
   0.31060606  0.00000000  0.31060606       0.002
   0.30303030  0.00000000  0.30303030       0.002
   0.29545455  0.00000000  0.29545455       0.002
   0.28787879  0.00000000  0.28787879       0.002
   0.28030303  0.00000000  0.28030303       0.002
   0.27272727  0.00000000  0.27272727       0.002
   0.26515152  0.00000000  0.26515152       0.002
   0.25757576  0.00000000  0.25757576       0.002
   0.25000000  0.00000000  0.25000000       0.002
   0.24242424  0.00000000  0.24242424       0.002
   0.23484848  0.00000000  0.23484848       0.002
   0.22727273  0.00000000  0.22727273       0.002
   0.21969697  0.00000000  0.21969697       0.002
   0.21212121  0.00000000  0.21212121       0.002
   0.20454545  0.00000000  0.20454545       0.002
   0.19696970  0.00000000  0.19696970       0.002
   0.18939394  0.00000000  0.18939394       0.002
   0.18181818  0.00000000  0.18181818       0.002
   0.17424242  0.00000000  0.17424242       0.002
   0.16666667  0.00000000  0.16666667       0.002
   0.15909091  0.00000000  0.15909091       0.002
   0.15151515  0.00000000  0.15151515       0.002
   0.14393939  0.00000000  0.14393939       0.002
   0.13636364  0.00000000  0.13636364       0.002
   0.12878788  0.00000000  0.12878788       0.002
   0.12121212  0.00000000  0.12121212       0.002
   0.11363636  0.00000000  0.11363636       0.002
   0.10606061  0.00000000  0.10606061       0.002
   0.09848485  0.00000000  0.09848485       0.002
   0.09090909  0.00000000  0.09090909       0.002
   0.08333333  0.00000000  0.08333333       0.002
   0.07575758  0.00000000  0.07575758       0.002
   0.06818182  0.00000000  0.06818182       0.002
   0.06060606  0.00000000  0.06060606       0.002
   0.05303030  0.00000000  0.05303030       0.002
   0.04545455  0.00000000  0.04545455       0.002
   0.03787879  0.00000000  0.03787879       0.002
   0.03030303  0.00000000  0.03030303       0.002
   0.02272727  0.00000000  0.02272727       0.002
   0.01515152  0.00000000  0.01515152       0.002
   0.00757576  0.00000000  0.00757576       0.002
   0.00000000  0.00000000  0.00000000       0.002
   0.00000000  0.00000000  0.00000000       0.002
   0.00505051  0.00505051  0.00505051       0.002
   0.01010101  0.01010101  0.01010101       0.002
   0.01515152  0.01515152  0.01515152       0.002
   0.02020202  0.02020202  0.02020202       0.002
   0.02525253  0.02525253  0.02525253       0.002
   0.03030303  0.03030303  0.03030303       0.002
   0.03535354  0.03535354  0.03535354       0.002
   0.04040404  0.04040404  0.04040404       0.002
   0.04545455  0.04545455  0.04545455       0.002
   0.05050505  0.05050505  0.05050505       0.002
   0.05555556  0.05555556  0.05555556       0.002
   0.06060606  0.06060606  0.06060606       0.002
   0.06565657  0.06565657  0.06565657       0.002
   0.07070707  0.07070707  0.07070707       0.002
   0.07575758  0.07575758  0.07575758       0.002
   0.08080808  0.08080808  0.08080808       0.002
   0.08585859  0.08585859  0.08585859       0.002
   0.09090909  0.09090909  0.09090909       0.002
   0.09595960  0.09595960  0.09595960       0.002
   0.10101010  0.10101010  0.10101010       0.002
   0.10606061  0.10606061  0.10606061       0.002
   0.11111111  0.11111111  0.11111111       0.002
   0.11616162  0.11616162  0.11616162       0.002
   0.12121212  0.12121212  0.12121212       0.002
   0.12626263  0.12626263  0.12626263       0.002
   0.13131313  0.13131313  0.13131313       0.002
   0.13636364  0.13636364  0.13636364       0.002
   0.14141414  0.14141414  0.14141414       0.002
   0.14646465  0.14646465  0.14646465       0.002
   0.15151515  0.15151515  0.15151515       0.002
   0.15656566  0.15656566  0.15656566       0.002
   0.16161616  0.16161616  0.16161616       0.002
   0.16666667  0.16666667  0.16666667       0.002
   0.17171717  0.17171717  0.17171717       0.002
   0.17676768  0.17676768  0.17676768       0.002
   0.18181818  0.18181818  0.18181818       0.002
   0.18686869  0.18686869  0.18686869       0.002
   0.19191919  0.19191919  0.19191919       0.002
   0.19696970  0.19696970  0.19696970       0.002
   0.20202020  0.20202020  0.20202020       0.002
   0.20707071  0.20707071  0.20707071       0.002
   0.21212121  0.21212121  0.21212121       0.002
   0.21717172  0.21717172  0.21717172       0.002
   0.22222222  0.22222222  0.22222222       0.002
   0.22727273  0.22727273  0.22727273       0.002
   0.23232323  0.23232323  0.23232323       0.002
   0.23737374  0.23737374  0.23737374       0.002
   0.24242424  0.24242424  0.24242424       0.002
   0.24747475  0.24747475  0.24747475       0.002
   0.25252525  0.25252525  0.25252525       0.002
   0.25757576  0.25757576  0.25757576       0.002
   0.26262626  0.26262626  0.26262626       0.002
   0.26767677  0.26767677  0.26767677       0.002
   0.27272727  0.27272727  0.27272727       0.002
   0.27777778  0.27777778  0.27777778       0.002
   0.28282828  0.28282828  0.28282828       0.002
   0.28787879  0.28787879  0.28787879       0.002
   0.29292929  0.29292929  0.29292929       0.002
   0.29797980  0.29797980  0.29797980       0.002
   0.30303030  0.30303030  0.30303030       0.002
   0.30808081  0.30808081  0.30808081       0.002
   0.31313131  0.31313131  0.31313131       0.002
   0.31818182  0.31818182  0.31818182       0.002
   0.32323232  0.32323232  0.32323232       0.002
   0.32828283  0.32828283  0.32828283       0.002
   0.33333333  0.33333333  0.33333333       0.002
   0.33838384  0.33838384  0.33838384       0.002
   0.34343434  0.34343434  0.34343434       0.002
   0.34848485  0.34848485  0.34848485       0.002
   0.35353535  0.35353535  0.35353535       0.002
   0.35858586  0.35858586  0.35858586       0.002
   0.36363636  0.36363636  0.36363636       0.002
   0.36868687  0.36868687  0.36868687       0.002
   0.37373737  0.37373737  0.37373737       0.002
   0.37878788  0.37878788  0.37878788       0.002
   0.38383838  0.38383838  0.38383838       0.002
   0.38888889  0.38888889  0.38888889       0.002
   0.39393939  0.39393939  0.39393939       0.002
   0.39898990  0.39898990  0.39898990       0.002
   0.40404040  0.40404040  0.40404040       0.002
   0.40909091  0.40909091  0.40909091       0.002
   0.41414141  0.41414141  0.41414141       0.002
   0.41919192  0.41919192  0.41919192       0.002
   0.42424242  0.42424242  0.42424242       0.002
   0.42929293  0.42929293  0.42929293       0.002
   0.43434343  0.43434343  0.43434343       0.002
   0.43939394  0.43939394  0.43939394       0.002
   0.44444444  0.44444444  0.44444444       0.002
   0.44949495  0.44949495  0.44949495       0.002
   0.45454545  0.45454545  0.45454545       0.002
   0.45959596  0.45959596  0.45959596       0.002
   0.46464646  0.46464646  0.46464646       0.002
   0.46969697  0.46969697  0.46969697       0.002
   0.47474747  0.47474747  0.47474747       0.002
   0.47979798  0.47979798  0.47979798       0.002
   0.48484848  0.48484848  0.48484848       0.002
   0.48989899  0.48989899  0.48989899       0.002
   0.49494949  0.49494949  0.49494949       0.002
   0.50000000  0.50000000  0.50000000       0.002
   0.50000000  0.50000000  0.50000000       0.002
   0.50505051  0.49494949  0.50000000       0.002
   0.51010101  0.48989899  0.50000000       0.002
   0.51515152  0.48484848  0.50000000       0.002
   0.52020202  0.47979798  0.50000000       0.002
   0.52525253  0.47474747  0.50000000       0.002
   0.53030303  0.46969697  0.50000000       0.002
   0.53535354  0.46464646  0.50000000       0.002
   0.54040404  0.45959596  0.50000000       0.002
   0.54545455  0.45454545  0.50000000       0.002
   0.55050505  0.44949495  0.50000000       0.002
   0.55555556  0.44444444  0.50000000       0.002
   0.56060606  0.43939394  0.50000000       0.002
   0.56565657  0.43434343  0.50000000       0.002
   0.57070707  0.42929293  0.50000000       0.002
   0.57575758  0.42424242  0.50000000       0.002
   0.58080808  0.41919192  0.50000000       0.002
   0.58585859  0.41414141  0.50000000       0.002
   0.59090909  0.40909091  0.50000000       0.002
   0.59595960  0.40404040  0.50000000       0.002
   0.60101010  0.39898990  0.50000000       0.002
   0.60606061  0.39393939  0.50000000       0.002
   0.61111111  0.38888889  0.50000000       0.002
   0.61616162  0.38383838  0.50000000       0.002
   0.62121212  0.37878788  0.50000000       0.002
   0.62626263  0.37373737  0.50000000       0.002
   0.63131313  0.36868687  0.50000000       0.002
   0.63636364  0.36363636  0.50000000       0.002
   0.64141414  0.35858586  0.50000000       0.002
   0.64646465  0.35353535  0.50000000       0.002
   0.65151515  0.34848485  0.50000000       0.002
   0.65656566  0.34343434  0.50000000       0.002
   0.66161616  0.33838384  0.50000000       0.002
   0.66666667  0.33333333  0.50000000       0.002
   0.67171717  0.32828283  0.50000000       0.002
   0.67676768  0.32323232  0.50000000       0.002
   0.68181818  0.31818182  0.50000000       0.002
   0.68686869  0.31313131  0.50000000       0.002
   0.69191919  0.30808081  0.50000000       0.002
   0.69696970  0.30303030  0.50000000       0.002
   0.70202020  0.29797980  0.50000000       0.002
   0.70707071  0.29292929  0.50000000       0.002
   0.71212121  0.28787879  0.50000000       0.002
   0.71717172  0.28282828  0.50000000       0.002
   0.72222222  0.27777778  0.50000000       0.002
   0.72727273  0.27272727  0.50000000       0.002
   0.73232323  0.26767677  0.50000000       0.002
   0.73737374  0.26262626  0.50000000       0.002
   0.74242424  0.25757576  0.50000000       0.002
   0.74747475  0.25252525  0.50000000       0.002
   0.75252525  0.24747475  0.50000000       0.002
   0.75757576  0.24242424  0.50000000       0.002
   0.76262626  0.23737374  0.50000000       0.002
   0.76767677  0.23232323  0.50000000       0.002
   0.77272727  0.22727273  0.50000000       0.002
   0.77777778  0.22222222  0.50000000       0.002
   0.78282828  0.21717172  0.50000000       0.002
   0.78787879  0.21212121  0.50000000       0.002
   0.79292929  0.20707071  0.50000000       0.002
   0.79797980  0.20202020  0.50000000       0.002
   0.80303030  0.19696970  0.50000000       0.002
   0.80808081  0.19191919  0.50000000       0.002
   0.81313131  0.18686869  0.50000000       0.002
   0.81818182  0.18181818  0.50000000       0.002
   0.82323232  0.17676768  0.50000000       0.002
   0.82828283  0.17171717  0.50000000       0.002
   0.83333333  0.16666667  0.50000000       0.002
   0.83838384  0.16161616  0.50000000       0.002
   0.84343434  0.15656566  0.50000000       0.002
   0.84848485  0.15151515  0.50000000       0.002
   0.85353535  0.14646465  0.50000000       0.002
   0.85858586  0.14141414  0.50000000       0.002
   0.86363636  0.13636364  0.50000000       0.002
   0.86868687  0.13131313  0.50000000       0.002
   0.87373737  0.12626263  0.50000000       0.002
   0.87878788  0.12121212  0.50000000       0.002
   0.88383838  0.11616162  0.50000000       0.002
   0.88888889  0.11111111  0.50000000       0.002
   0.89393939  0.10606061  0.50000000       0.002
   0.89898990  0.10101010  0.50000000       0.002
   0.90404040  0.09595960  0.50000000       0.002
   0.90909091  0.09090909  0.50000000       0.002
   0.91414141  0.08585859  0.50000000       0.002
   0.91919192  0.08080808  0.50000000       0.002
   0.92424242  0.07575758  0.50000000       0.002
   0.92929293  0.07070707  0.50000000       0.002
   0.93434343  0.06565657  0.50000000       0.002
   0.93939394  0.06060606  0.50000000       0.002
   0.94444444  0.05555556  0.50000000       0.002
   0.94949495  0.05050505  0.50000000       0.002
   0.95454545  0.04545455  0.50000000       0.002
   0.95959596  0.04040404  0.50000000       0.002
   0.96464646  0.03535354  0.50000000       0.002
   0.96969697  0.03030303  0.50000000       0.002
   0.97474747  0.02525253  0.50000000       0.002
   0.97979798  0.02020202  0.50000000       0.002
   0.98484848  0.01515152  0.50000000       0.002
   0.98989899  0.01010101  0.50000000       0.002
   0.99494949  0.00505051  0.50000000       0.002
   1.00000000  0.00000000  0.50000000       0.002
   1.00000000  0.00000000  0.50000000       0.002
   1.00000000  0.00000000  0.49494949       0.002
   1.00000000  0.00000000  0.48989899       0.002
   1.00000000  0.00000000  0.48484848       0.002
   1.00000000  0.00000000  0.47979798       0.002
   1.00000000  0.00000000  0.47474747       0.002
   1.00000000  0.00000000  0.46969697       0.002
   1.00000000  0.00000000  0.46464646       0.002
   1.00000000  0.00000000  0.45959596       0.002
   1.00000000  0.00000000  0.45454545       0.002
   1.00000000  0.00000000  0.44949495       0.002
   1.00000000  0.00000000  0.44444444       0.002
   1.00000000  0.00000000  0.43939394       0.002
   1.00000000  0.00000000  0.43434343       0.002
   1.00000000  0.00000000  0.42929293       0.002
   1.00000000  0.00000000  0.42424242       0.002
   1.00000000  0.00000000  0.41919192       0.002
   1.00000000  0.00000000  0.41414141       0.002
   1.00000000  0.00000000  0.40909091       0.002
   1.00000000  0.00000000  0.40404040       0.002
   1.00000000  0.00000000  0.39898990       0.002
   1.00000000 -0.00000000  0.39393939       0.002
   1.00000000  0.00000000  0.38888889       0.002
   1.00000000  0.00000000  0.38383838       0.002
   1.00000000 -0.00000000  0.37878788       0.002
   1.00000000  0.00000000  0.37373737       0.002
   1.00000000  0.00000000  0.36868687       0.002
   1.00000000  0.00000000  0.36363636       0.002
   1.00000000  0.00000000  0.35858586       0.002
   1.00000000  0.00000000  0.35353535       0.002
   1.00000000  0.00000000  0.34848485       0.002
   1.00000000  0.00000000  0.34343434       0.002
   1.00000000  0.00000000  0.33838384       0.002
   1.00000000  0.00000000  0.33333333       0.002
   1.00000000  0.00000000  0.32828283       0.002
   1.00000000  0.00000000  0.32323232       0.002
   1.00000000  0.00000000  0.31818182       0.002
   1.00000000  0.00000000  0.31313131       0.002
   1.00000000  0.00000000  0.30808081       0.002
   1.00000000  0.00000000  0.30303030       0.002
   1.00000000 -0.00000000  0.29797980       0.002
   1.00000000  0.00000000  0.29292929       0.002
   1.00000000  0.00000000  0.28787879       0.002
   1.00000000  0.00000000  0.28282828       0.002
   1.00000000  0.00000000  0.27777778       0.002
   1.00000000  0.00000000  0.27272727       0.002
   1.00000000  0.00000000  0.26767677       0.002
   1.00000000  0.00000000  0.26262626       0.002
   1.00000000  0.00000000  0.25757576       0.002
   1.00000000 -0.00000000  0.25252525       0.002
   1.00000000  0.00000000  0.24747475       0.002
   1.00000000  0.00000000  0.24242424       0.002
   1.00000000 -0.00000000  0.23737374       0.002
   1.00000000  0.00000000  0.23232323       0.002
   1.00000000 -0.00000000  0.22727273       0.002
   1.00000000  0.00000000  0.22222222       0.002
   1.00000000  0.00000000  0.21717172       0.002
   1.00000000  0.00000000  0.21212121       0.002
   1.00000000 -0.00000000  0.20707071       0.002
   1.00000000  0.00000000  0.20202020       0.002
   1.00000000  0.00000000  0.19696970       0.002
   1.00000000  0.00000000  0.19191919       0.002
   1.00000000  0.00000000  0.18686869       0.002
   1.00000000  0.00000000  0.18181818       0.002
   1.00000000  0.00000000  0.17676768       0.002
   1.00000000  0.00000000  0.17171717       0.002
   1.00000000  0.00000000  0.16666667       0.002
   1.00000000  0.00000000  0.16161616       0.002
   1.00000000 -0.00000000  0.15656566       0.002
   1.00000000  0.00000000  0.15151515       0.002
   1.00000000  0.00000000  0.14646465       0.002
   1.00000000  0.00000000  0.14141414       0.002
   1.00000000  0.00000000  0.13636364       0.002
   1.00000000 -0.00000000  0.13131313       0.002
   1.00000000  0.00000000  0.12626263       0.002
   1.00000000  0.00000000  0.12121212       0.002
   1.00000000  0.00000000  0.11616162       0.002
   1.00000000 -0.00000000  0.11111111       0.002
   1.00000000  0.00000000  0.10606061       0.002
   1.00000000  0.00000000  0.10101010       0.002
   1.00000000 -0.00000000  0.09595960       0.002
   1.00000000  0.00000000  0.09090909       0.002
   1.00000000 -0.00000000  0.08585859       0.002
   1.00000000  0.00000000  0.08080808       0.002
   1.00000000  0.00000000  0.07575758       0.002
   1.00000000  0.00000000  0.07070707       0.002
   1.00000000 -0.00000000  0.06565657       0.002
   1.00000000  0.00000000  0.06060606       0.002
   1.00000000  0.00000000  0.05555556       0.002
   1.00000000  0.00000000  0.05050505       0.002
   1.00000000  0.00000000  0.04545455       0.002
   1.00000000 -0.00000000  0.04040404       0.002
   1.00000000  0.00000000  0.03535354       0.002
   1.00000000  0.00000000  0.03030303       0.002
   1.00000000  0.00000000  0.02525253       0.002
   1.00000000  0.00000000  0.02020202       0.002
   1.00000000  0.00000000  0.01515152       0.002
   1.00000000  0.00000000  0.01010101       0.002
   1.00000000  0.00000000  0.00505051       0.002
   1.00000000  0.00000000  0.00000000       0.002
 
 k-points in reciprocal lattice and weights: kpoints for bandstructure GAMMA-X-U|K-GA
   0.00000000  0.00000000  0.00000000       0.002
   0.00505051  0.00000000  0.00505051       0.002
   0.01010101  0.00000000  0.01010101       0.002
   0.01515152  0.00000000  0.01515152       0.002
   0.02020202  0.00000000  0.02020202       0.002
   0.02525253  0.00000000  0.02525253       0.002
   0.03030303  0.00000000  0.03030303       0.002
   0.03535354  0.00000000  0.03535354       0.002
   0.04040404  0.00000000  0.04040404       0.002
   0.04545455  0.00000000  0.04545455       0.002
   0.05050505  0.00000000  0.05050505       0.002
   0.05555556  0.00000000  0.05555556       0.002
   0.06060606  0.00000000  0.06060606       0.002
   0.06565657  0.00000000  0.06565657       0.002
   0.07070707  0.00000000  0.07070707       0.002
   0.07575758  0.00000000  0.07575758       0.002
   0.08080808  0.00000000  0.08080808       0.002
   0.08585859  0.00000000  0.08585859       0.002
   0.09090909  0.00000000  0.09090909       0.002
   0.09595960  0.00000000  0.09595960       0.002
   0.10101010  0.00000000  0.10101010       0.002
   0.10606061  0.00000000  0.10606061       0.002
   0.11111111  0.00000000  0.11111111       0.002
   0.11616162  0.00000000  0.11616162       0.002
   0.12121212  0.00000000  0.12121212       0.002
   0.12626263  0.00000000  0.12626263       0.002
   0.13131313  0.00000000  0.13131313       0.002
   0.13636364  0.00000000  0.13636364       0.002
   0.14141414  0.00000000  0.14141414       0.002
   0.14646465  0.00000000  0.14646465       0.002
   0.15151515  0.00000000  0.15151515       0.002
   0.15656566  0.00000000  0.15656566       0.002
   0.16161616  0.00000000  0.16161616       0.002
   0.16666667  0.00000000  0.16666667       0.002
   0.17171717  0.00000000  0.17171717       0.002
   0.17676768  0.00000000  0.17676768       0.002
   0.18181818  0.00000000  0.18181818       0.002
   0.18686869  0.00000000  0.18686869       0.002
   0.19191919  0.00000000  0.19191919       0.002
   0.19696970  0.00000000  0.19696970       0.002
   0.20202020  0.00000000  0.20202020       0.002
   0.20707071  0.00000000  0.20707071       0.002
   0.21212121  0.00000000  0.21212121       0.002
   0.21717172  0.00000000  0.21717172       0.002
   0.22222222  0.00000000  0.22222222       0.002
   0.22727273  0.00000000  0.22727273       0.002
   0.23232323  0.00000000  0.23232323       0.002
   0.23737374  0.00000000  0.23737374       0.002
   0.24242424  0.00000000  0.24242424       0.002
   0.24747475  0.00000000  0.24747475       0.002
   0.25252525  0.00000000  0.25252525       0.002
   0.25757576  0.00000000  0.25757576       0.002
   0.26262626  0.00000000  0.26262626       0.002
   0.26767677  0.00000000  0.26767677       0.002
   0.27272727  0.00000000  0.27272727       0.002
   0.27777778  0.00000000  0.27777778       0.002
   0.28282828  0.00000000  0.28282828       0.002
   0.28787879  0.00000000  0.28787879       0.002
   0.29292929  0.00000000  0.29292929       0.002
   0.29797980  0.00000000  0.29797980       0.002
   0.30303030  0.00000000  0.30303030       0.002
   0.30808081  0.00000000  0.30808081       0.002
   0.31313131  0.00000000  0.31313131       0.002
   0.31818182  0.00000000  0.31818182       0.002
   0.32323232  0.00000000  0.32323232       0.002
   0.32828283  0.00000000  0.32828283       0.002
   0.33333333  0.00000000  0.33333333       0.002
   0.33838384  0.00000000  0.33838384       0.002
   0.34343434  0.00000000  0.34343434       0.002
   0.34848485  0.00000000  0.34848485       0.002
   0.35353535  0.00000000  0.35353535       0.002
   0.35858586  0.00000000  0.35858586       0.002
   0.36363636  0.00000000  0.36363636       0.002
   0.36868687  0.00000000  0.36868687       0.002
   0.37373737  0.00000000  0.37373737       0.002
   0.37878788  0.00000000  0.37878788       0.002
   0.38383838  0.00000000  0.38383838       0.002
   0.38888889  0.00000000  0.38888889       0.002
   0.39393939  0.00000000  0.39393939       0.002
   0.39898990  0.00000000  0.39898990       0.002
   0.40404040  0.00000000  0.40404040       0.002
   0.40909091  0.00000000  0.40909091       0.002
   0.41414141  0.00000000  0.41414141       0.002
   0.41919192  0.00000000  0.41919192       0.002
   0.42424242  0.00000000  0.42424242       0.002
   0.42929293  0.00000000  0.42929293       0.002
   0.43434343  0.00000000  0.43434343       0.002
   0.43939394  0.00000000  0.43939394       0.002
   0.44444444  0.00000000  0.44444444       0.002
   0.44949495  0.00000000  0.44949495       0.002
   0.45454545  0.00000000  0.45454545       0.002
   0.45959596  0.00000000  0.45959596       0.002
   0.46464646  0.00000000  0.46464646       0.002
   0.46969697  0.00000000  0.46969697       0.002
   0.47474747  0.00000000  0.47474747       0.002
   0.47979798  0.00000000  0.47979798       0.002
   0.48484848  0.00000000  0.48484848       0.002
   0.48989899  0.00000000  0.48989899       0.002
   0.49494949  0.00000000  0.49494949       0.002
   0.50000000  0.00000000  0.50000000       0.002
   0.50000000  0.00000000  0.50000000       0.002
   0.50126263  0.00252525  0.50126263       0.002
   0.50252525  0.00505051  0.50252525       0.002
   0.50378788  0.00757576  0.50378788       0.002
   0.50505051  0.01010101  0.50505051       0.002
   0.50631313  0.01262626  0.50631313       0.002
   0.50757576  0.01515152  0.50757576       0.002
   0.50883838  0.01767677  0.50883838       0.002
   0.51010101  0.02020202  0.51010101       0.002
   0.51136364  0.02272727  0.51136364       0.002
   0.51262626  0.02525253  0.51262626       0.002
   0.51388889  0.02777778  0.51388889       0.002
   0.51515152  0.03030303  0.51515152       0.002
   0.51641414  0.03282828  0.51641414       0.002
   0.51767677  0.03535354  0.51767677       0.002
   0.51893939  0.03787879  0.51893939       0.002
   0.52020202  0.04040404  0.52020202       0.002
   0.52146465  0.04292929  0.52146465       0.002
   0.52272727  0.04545455  0.52272727       0.002
   0.52398990  0.04797980  0.52398990       0.002
   0.52525253  0.05050505  0.52525253       0.002
   0.52651515  0.05303030  0.52651515       0.002
   0.52777778  0.05555556  0.52777778       0.002
   0.52904040  0.05808081  0.52904040       0.002
   0.53030303  0.06060606  0.53030303       0.002
   0.53156566  0.06313131  0.53156566       0.002
   0.53282828  0.06565657  0.53282828       0.002
   0.53409091  0.06818182  0.53409091       0.002
   0.53535354  0.07070707  0.53535354       0.002
   0.53661616  0.07323232  0.53661616       0.002
   0.53787879  0.07575758  0.53787879       0.002
   0.53914141  0.07828283  0.53914141       0.002
   0.54040404  0.08080808  0.54040404       0.002
   0.54166667  0.08333333  0.54166667       0.002
   0.54292929  0.08585859  0.54292929       0.002
   0.54419192  0.08838384  0.54419192       0.002
   0.54545455  0.09090909  0.54545455       0.002
   0.54671717  0.09343434  0.54671717       0.002
   0.54797980  0.09595960  0.54797980       0.002
   0.54924242  0.09848485  0.54924242       0.002
   0.55050505  0.10101010  0.55050505       0.002
   0.55176768  0.10353535  0.55176768       0.002
   0.55303030  0.10606061  0.55303030       0.002
   0.55429293  0.10858586  0.55429293       0.002
   0.55555556  0.11111111  0.55555556       0.002
   0.55681818  0.11363636  0.55681818       0.002
   0.55808081  0.11616162  0.55808081       0.002
   0.55934343  0.11868687  0.55934343       0.002
   0.56060606  0.12121212  0.56060606       0.002
   0.56186869  0.12373737  0.56186869       0.002
   0.56313131  0.12626263  0.56313131       0.002
   0.56439394  0.12878788  0.56439394       0.002
   0.56565657  0.13131313  0.56565657       0.002
   0.56691919  0.13383838  0.56691919       0.002
   0.56818182  0.13636364  0.56818182       0.002
   0.56944444  0.13888889  0.56944444       0.002
   0.57070707  0.14141414  0.57070707       0.002
   0.57196970  0.14393939  0.57196970       0.002
   0.57323232  0.14646465  0.57323232       0.002
   0.57449495  0.14898990  0.57449495       0.002
   0.57575758  0.15151515  0.57575758       0.002
   0.57702020  0.15404040  0.57702020       0.002
   0.57828283  0.15656566  0.57828283       0.002
   0.57954545  0.15909091  0.57954545       0.002
   0.58080808  0.16161616  0.58080808       0.002
   0.58207071  0.16414141  0.58207071       0.002
   0.58333333  0.16666667  0.58333333       0.002
   0.58459596  0.16919192  0.58459596       0.002
   0.58585859  0.17171717  0.58585859       0.002
   0.58712121  0.17424242  0.58712121       0.002
   0.58838384  0.17676768  0.58838384       0.002
   0.58964646  0.17929293  0.58964646       0.002
   0.59090909  0.18181818  0.59090909       0.002
   0.59217172  0.18434343  0.59217172       0.002
   0.59343434  0.18686869  0.59343434       0.002
   0.59469697  0.18939394  0.59469697       0.002
   0.59595960  0.19191919  0.59595960       0.002
   0.59722222  0.19444444  0.59722222       0.002
   0.59848485  0.19696970  0.59848485       0.002
   0.59974747  0.19949495  0.59974747       0.002
   0.60101010  0.20202020  0.60101010       0.002
   0.60227273  0.20454545  0.60227273       0.002
   0.60353535  0.20707071  0.60353535       0.002
   0.60479798  0.20959596  0.60479798       0.002
   0.60606061  0.21212121  0.60606061       0.002
   0.60732323  0.21464646  0.60732323       0.002
   0.60858586  0.21717172  0.60858586       0.002
   0.60984848  0.21969697  0.60984848       0.002
   0.61111111  0.22222222  0.61111111       0.002
   0.61237374  0.22474747  0.61237374       0.002
   0.61363636  0.22727273  0.61363636       0.002
   0.61489899  0.22979798  0.61489899       0.002
   0.61616162  0.23232323  0.61616162       0.002
   0.61742424  0.23484848  0.61742424       0.002
   0.61868687  0.23737374  0.61868687       0.002
   0.61994949  0.23989899  0.61994949       0.002
   0.62121212  0.24242424  0.62121212       0.002
   0.62247475  0.24494949  0.62247475       0.002
   0.62373737  0.24747475  0.62373737       0.002
   0.62500000  0.25000000  0.62500000       0.002
   0.37500000  0.37500000  0.75000000       0.002
   0.37121212  0.37121212  0.74242424       0.002
   0.36742424  0.36742424  0.73484848       0.002
   0.36363636  0.36363636  0.72727273       0.002
   0.35984848  0.35984848  0.71969697       0.002
   0.35606061  0.35606061  0.71212121       0.002
   0.35227273  0.35227273  0.70454545       0.002
   0.34848485  0.34848485  0.69696970       0.002
   0.34469697  0.34469697  0.68939394       0.002
   0.34090909  0.34090909  0.68181818       0.002
   0.33712121  0.33712121  0.67424242       0.002
   0.33333333  0.33333333  0.66666667       0.002
   0.32954545  0.32954545  0.65909091       0.002
   0.32575758  0.32575758  0.65151515       0.002
   0.32196970  0.32196970  0.64393939       0.002
   0.31818182  0.31818182  0.63636364       0.002
   0.31439394  0.31439394  0.62878788       0.002
   0.31060606  0.31060606  0.62121212       0.002
   0.30681818  0.30681818  0.61363636       0.002
   0.30303030  0.30303030  0.60606061       0.002
   0.29924242  0.29924242  0.59848485       0.002
   0.29545455  0.29545455  0.59090909       0.002
   0.29166667  0.29166667  0.58333333       0.002
   0.28787879  0.28787879  0.57575758       0.002
   0.28409091  0.28409091  0.56818182       0.002
   0.28030303  0.28030303  0.56060606       0.002
   0.27651515  0.27651515  0.55303030       0.002
   0.27272727  0.27272727  0.54545455       0.002
   0.26893939  0.26893939  0.53787879       0.002
   0.26515152  0.26515152  0.53030303       0.002
   0.26136364  0.26136364  0.52272727       0.002
   0.25757576  0.25757576  0.51515152       0.002
   0.25378788  0.25378788  0.50757576       0.002
   0.25000000  0.25000000  0.50000000       0.002
   0.24621212  0.24621212  0.49242424       0.002
   0.24242424  0.24242424  0.48484848       0.002
   0.23863636  0.23863636  0.47727273       0.002
   0.23484848  0.23484848  0.46969697       0.002
   0.23106061  0.23106061  0.46212121       0.002
   0.22727273  0.22727273  0.45454545       0.002
   0.22348485  0.22348485  0.44696970       0.002
   0.21969697  0.21969697  0.43939394       0.002
   0.21590909  0.21590909  0.43181818       0.002
   0.21212121  0.21212121  0.42424242       0.002
   0.20833333  0.20833333  0.41666667       0.002
   0.20454545  0.20454545  0.40909091       0.002
   0.20075758  0.20075758  0.40151515       0.002
   0.19696970  0.19696970  0.39393939       0.002
   0.19318182  0.19318182  0.38636364       0.002
   0.18939394  0.18939394  0.37878788       0.002
   0.18560606  0.18560606  0.37121212       0.002
   0.18181818  0.18181818  0.36363636       0.002
   0.17803030  0.17803030  0.35606061       0.002
   0.17424242  0.17424242  0.34848485       0.002
   0.17045455  0.17045455  0.34090909       0.002
   0.16666667  0.16666667  0.33333333       0.002
   0.16287879  0.16287879  0.32575758       0.002
   0.15909091  0.15909091  0.31818182       0.002
   0.15530303  0.15530303  0.31060606       0.002
   0.15151515  0.15151515  0.30303030       0.002
   0.14772727  0.14772727  0.29545455       0.002
   0.14393939  0.14393939  0.28787879       0.002
   0.14015152  0.14015152  0.28030303       0.002
   0.13636364  0.13636364  0.27272727       0.002
   0.13257576  0.13257576  0.26515152       0.002
   0.12878788  0.12878788  0.25757576       0.002
   0.12500000  0.12500000  0.25000000       0.002
   0.12121212  0.12121212  0.24242424       0.002
   0.11742424  0.11742424  0.23484848       0.002
   0.11363636  0.11363636  0.22727273       0.002
   0.10984848  0.10984848  0.21969697       0.002
   0.10606061  0.10606061  0.21212121       0.002
   0.10227273  0.10227273  0.20454545       0.002
   0.09848485  0.09848485  0.19696970       0.002
   0.09469697  0.09469697  0.18939394       0.002
   0.09090909  0.09090909  0.18181818       0.002
   0.08712121  0.08712121  0.17424242       0.002
   0.08333333  0.08333333  0.16666667       0.002
   0.07954545  0.07954545  0.15909091       0.002
   0.07575758  0.07575758  0.15151515       0.002
   0.07196970  0.07196970  0.14393939       0.002
   0.06818182  0.06818182  0.13636364       0.002
   0.06439394  0.06439394  0.12878788       0.002
   0.06060606  0.06060606  0.12121212       0.002
   0.05681818  0.05681818  0.11363636       0.002
   0.05303030  0.05303030  0.10606061       0.002
   0.04924242  0.04924242  0.09848485       0.002
   0.04545455  0.04545455  0.09090909       0.002
   0.04166667  0.04166667  0.08333333       0.002
   0.03787879  0.03787879  0.07575758       0.002
   0.03409091  0.03409091  0.06818182       0.002
   0.03030303  0.03030303  0.06060606       0.002
   0.02651515  0.02651515  0.05303030       0.002
   0.02272727  0.02272727  0.04545455       0.002
   0.01893939  0.01893939  0.03787879       0.002
   0.01515152  0.01515152  0.03030303       0.002
   0.01136364  0.01136364  0.02272727       0.002
   0.00757576  0.00757576  0.01515152       0.002
   0.00378788  0.00378788  0.00757576       0.002
   0.00000000  0.00000000  0.00000000       0.002
   0.00000000  0.00000000  0.00000000       0.002
   0.00505051  0.00505051  0.00505051       0.002
   0.01010101  0.01010101  0.01010101       0.002
   0.01515152  0.01515152  0.01515152       0.002
   0.02020202  0.02020202  0.02020202       0.002
   0.02525253  0.02525253  0.02525253       0.002
   0.03030303  0.03030303  0.03030303       0.002
   0.03535354  0.03535354  0.03535354       0.002
   0.04040404  0.04040404  0.04040404       0.002
   0.04545455  0.04545455  0.04545455       0.002
   0.05050505  0.05050505  0.05050505       0.002
   0.05555556  0.05555556  0.05555556       0.002
   0.06060606  0.06060606  0.06060606       0.002
   0.06565657  0.06565657  0.06565657       0.002
   0.07070707  0.07070707  0.07070707       0.002
   0.07575758  0.07575758  0.07575758       0.002
   0.08080808  0.08080808  0.08080808       0.002
   0.08585859  0.08585859  0.08585859       0.002
   0.09090909  0.09090909  0.09090909       0.002
   0.09595960  0.09595960  0.09595960       0.002
   0.10101010  0.10101010  0.10101010       0.002
   0.10606061  0.10606061  0.10606061       0.002
   0.11111111  0.11111111  0.11111111       0.002
   0.11616162  0.11616162  0.11616162       0.002
   0.12121212  0.12121212  0.12121212       0.002
   0.12626263  0.12626263  0.12626263       0.002
   0.13131313  0.13131313  0.13131313       0.002
   0.13636364  0.13636364  0.13636364       0.002
   0.14141414  0.14141414  0.14141414       0.002
   0.14646465  0.14646465  0.14646465       0.002
   0.15151515  0.15151515  0.15151515       0.002
   0.15656566  0.15656566  0.15656566       0.002
   0.16161616  0.16161616  0.16161616       0.002
   0.16666667  0.16666667  0.16666667       0.002
   0.17171717  0.17171717  0.17171717       0.002
   0.17676768  0.17676768  0.17676768       0.002
   0.18181818  0.18181818  0.18181818       0.002
   0.18686869  0.18686869  0.18686869       0.002
   0.19191919  0.19191919  0.19191919       0.002
   0.19696970  0.19696970  0.19696970       0.002
   0.20202020  0.20202020  0.20202020       0.002
   0.20707071  0.20707071  0.20707071       0.002
   0.21212121  0.21212121  0.21212121       0.002
   0.21717172  0.21717172  0.21717172       0.002
   0.22222222  0.22222222  0.22222222       0.002
   0.22727273  0.22727273  0.22727273       0.002
   0.23232323  0.23232323  0.23232323       0.002
   0.23737374  0.23737374  0.23737374       0.002
   0.24242424  0.24242424  0.24242424       0.002
   0.24747475  0.24747475  0.24747475       0.002
   0.25252525  0.25252525  0.25252525       0.002
   0.25757576  0.25757576  0.25757576       0.002
   0.26262626  0.26262626  0.26262626       0.002
   0.26767677  0.26767677  0.26767677       0.002
   0.27272727  0.27272727  0.27272727       0.002
   0.27777778  0.27777778  0.27777778       0.002
   0.28282828  0.28282828  0.28282828       0.002
   0.28787879  0.28787879  0.28787879       0.002
   0.29292929  0.29292929  0.29292929       0.002
   0.29797980  0.29797980  0.29797980       0.002
   0.30303030  0.30303030  0.30303030       0.002
   0.30808081  0.30808081  0.30808081       0.002
   0.31313131  0.31313131  0.31313131       0.002
   0.31818182  0.31818182  0.31818182       0.002
   0.32323232  0.32323232  0.32323232       0.002
   0.32828283  0.32828283  0.32828283       0.002
   0.33333333  0.33333333  0.33333333       0.002
   0.33838384  0.33838384  0.33838384       0.002
   0.34343434  0.34343434  0.34343434       0.002
   0.34848485  0.34848485  0.34848485       0.002
   0.35353535  0.35353535  0.35353535       0.002
   0.35858586  0.35858586  0.35858586       0.002
   0.36363636  0.36363636  0.36363636       0.002
   0.36868687  0.36868687  0.36868687       0.002
   0.37373737  0.37373737  0.37373737       0.002
   0.37878788  0.37878788  0.37878788       0.002
   0.38383838  0.38383838  0.38383838       0.002
   0.38888889  0.38888889  0.38888889       0.002
   0.39393939  0.39393939  0.39393939       0.002
   0.39898990  0.39898990  0.39898990       0.002
   0.40404040  0.40404040  0.40404040       0.002
   0.40909091  0.40909091  0.40909091       0.002
   0.41414141  0.41414141  0.41414141       0.002
   0.41919192  0.41919192  0.41919192       0.002
   0.42424242  0.42424242  0.42424242       0.002
   0.42929293  0.42929293  0.42929293       0.002
   0.43434343  0.43434343  0.43434343       0.002
   0.43939394  0.43939394  0.43939394       0.002
   0.44444444  0.44444444  0.44444444       0.002
   0.44949495  0.44949495  0.44949495       0.002
   0.45454545  0.45454545  0.45454545       0.002
   0.45959596  0.45959596  0.45959596       0.002
   0.46464646  0.46464646  0.46464646       0.002
   0.46969697  0.46969697  0.46969697       0.002
   0.47474747  0.47474747  0.47474747       0.002
   0.47979798  0.47979798  0.47979798       0.002
   0.48484848  0.48484848  0.48484848       0.002
   0.48989899  0.48989899  0.48989899       0.002
   0.49494949  0.49494949  0.49494949       0.002
   0.50000000  0.50000000  0.50000000       0.002
   0.50000000  0.50000000  0.50000000       0.002
   0.50000000  0.49747475  0.50252525       0.002
   0.50000000  0.49494949  0.50505051       0.002
   0.50000000  0.49242424  0.50757576       0.002
   0.50000000  0.48989899  0.51010101       0.002
   0.50000000  0.48737374  0.51262626       0.002
   0.50000000  0.48484848  0.51515152       0.002
   0.50000000  0.48232323  0.51767677       0.002
   0.50000000  0.47979798  0.52020202       0.002
   0.50000000  0.47727273  0.52272727       0.002
   0.50000000  0.47474747  0.52525253       0.002
   0.50000000  0.47222222  0.52777778       0.002
   0.50000000  0.46969697  0.53030303       0.002
   0.50000000  0.46717172  0.53282828       0.002
   0.50000000  0.46464646  0.53535354       0.002
   0.50000000  0.46212121  0.53787879       0.002
   0.50000000  0.45959596  0.54040404       0.002
   0.50000000  0.45707071  0.54292929       0.002
   0.50000000  0.45454545  0.54545455       0.002
   0.50000000  0.45202020  0.54797980       0.002
   0.50000000  0.44949495  0.55050505       0.002
   0.50000000  0.44696970  0.55303030       0.002
   0.50000000  0.44444444  0.55555556       0.002
   0.50000000  0.44191919  0.55808081       0.002
   0.50000000  0.43939394  0.56060606       0.002
   0.50000000  0.43686869  0.56313131       0.002
   0.50000000  0.43434343  0.56565657       0.002
   0.50000000  0.43181818  0.56818182       0.002
   0.50000000  0.42929293  0.57070707       0.002
   0.50000000  0.42676768  0.57323232       0.002
   0.50000000  0.42424242  0.57575758       0.002
   0.50000000  0.42171717  0.57828283       0.002
   0.50000000  0.41919192  0.58080808       0.002
   0.50000000  0.41666667  0.58333333       0.002
   0.50000000  0.41414141  0.58585859       0.002
   0.50000000  0.41161616  0.58838384       0.002
   0.50000000  0.40909091  0.59090909       0.002
   0.50000000  0.40656566  0.59343434       0.002
   0.50000000  0.40404040  0.59595960       0.002
   0.50000000  0.40151515  0.59848485       0.002
   0.50000000  0.39898990  0.60101010       0.002
   0.50000000  0.39646465  0.60353535       0.002
   0.50000000  0.39393939  0.60606061       0.002
   0.50000000  0.39141414  0.60858586       0.002
   0.50000000  0.38888889  0.61111111       0.002
   0.50000000  0.38636364  0.61363636       0.002
   0.50000000  0.38383838  0.61616162       0.002
   0.50000000  0.38131313  0.61868687       0.002
   0.50000000  0.37878788  0.62121212       0.002
   0.50000000  0.37626263  0.62373737       0.002
   0.50000000  0.37373737  0.62626263       0.002
   0.50000000  0.37121212  0.62878788       0.002
   0.50000000  0.36868687  0.63131313       0.002
   0.50000000  0.36616162  0.63383838       0.002
   0.50000000  0.36363636  0.63636364       0.002
   0.50000000  0.36111111  0.63888889       0.002
   0.50000000  0.35858586  0.64141414       0.002
   0.50000000  0.35606061  0.64393939       0.002
   0.50000000  0.35353535  0.64646465       0.002
   0.50000000  0.35101010  0.64898990       0.002
   0.50000000  0.34848485  0.65151515       0.002
   0.50000000  0.34595960  0.65404040       0.002
   0.50000000  0.34343434  0.65656566       0.002
   0.50000000  0.34090909  0.65909091       0.002
   0.50000000  0.33838384  0.66161616       0.002
   0.50000000  0.33585859  0.66414141       0.002
   0.50000000  0.33333333  0.66666667       0.002
   0.50000000  0.33080808  0.66919192       0.002
   0.50000000  0.32828283  0.67171717       0.002
   0.50000000  0.32575758  0.67424242       0.002
   0.50000000  0.32323232  0.67676768       0.002
   0.50000000  0.32070707  0.67929293       0.002
   0.50000000  0.31818182  0.68181818       0.002
   0.50000000  0.31565657  0.68434343       0.002
   0.50000000  0.31313131  0.68686869       0.002
   0.50000000  0.31060606  0.68939394       0.002
   0.50000000  0.30808081  0.69191919       0.002
   0.50000000  0.30555556  0.69444444       0.002
   0.50000000  0.30303030  0.69696970       0.002
   0.50000000  0.30050505  0.69949495       0.002
   0.50000000  0.29797980  0.70202020       0.002
   0.50000000  0.29545455  0.70454545       0.002
   0.50000000  0.29292929  0.70707071       0.002
   0.50000000  0.29040404  0.70959596       0.002
   0.50000000  0.28787879  0.71212121       0.002
   0.50000000  0.28535354  0.71464646       0.002
   0.50000000  0.28282828  0.71717172       0.002
   0.50000000  0.28030303  0.71969697       0.002
   0.50000000  0.27777778  0.72222222       0.002
   0.50000000  0.27525253  0.72474747       0.002
   0.50000000  0.27272727  0.72727273       0.002
   0.50000000  0.27020202  0.72979798       0.002
   0.50000000  0.26767677  0.73232323       0.002
   0.50000000  0.26515152  0.73484848       0.002
   0.50000000  0.26262626  0.73737374       0.002
   0.50000000  0.26010101  0.73989899       0.002
   0.50000000  0.25757576  0.74242424       0.002
   0.50000000  0.25505051  0.74494949       0.002
   0.50000000  0.25252525  0.74747475       0.002
   0.50000000  0.25000000  0.75000000       0.002
   0.50000000  0.25000000  0.75000000       0.002
   0.50000000  0.24747475  0.74747475       0.002
   0.50000000  0.24494949  0.74494949       0.002
   0.50000000  0.24242424  0.74242424       0.002
   0.50000000  0.23989899  0.73989899       0.002
   0.50000000  0.23737374  0.73737374       0.002
   0.50000000  0.23484848  0.73484848       0.002
   0.50000000  0.23232323  0.73232323       0.002
   0.50000000  0.22979798  0.72979798       0.002
   0.50000000  0.22727273  0.72727273       0.002
   0.50000000  0.22474747  0.72474747       0.002
   0.50000000  0.22222222  0.72222222       0.002
   0.50000000  0.21969697  0.71969697       0.002
   0.50000000  0.21717172  0.71717172       0.002
   0.50000000  0.21464646  0.71464646       0.002
   0.50000000  0.21212121  0.71212121       0.002
   0.50000000  0.20959596  0.70959596       0.002
   0.50000000  0.20707071  0.70707071       0.002
   0.50000000  0.20454545  0.70454545       0.002
   0.50000000  0.20202020  0.70202020       0.002
   0.50000000  0.19949495  0.69949495       0.002
   0.50000000  0.19696970  0.69696970       0.002
   0.50000000  0.19444444  0.69444444       0.002
   0.50000000  0.19191919  0.69191919       0.002
   0.50000000  0.18939394  0.68939394       0.002
   0.50000000  0.18686869  0.68686869       0.002
   0.50000000  0.18434343  0.68434343       0.002
   0.50000000  0.18181818  0.68181818       0.002
   0.50000000  0.17929293  0.67929293       0.002
   0.50000000  0.17676768  0.67676768       0.002
   0.50000000  0.17424242  0.67424242       0.002
   0.50000000  0.17171717  0.67171717       0.002
   0.50000000  0.16919192  0.66919192       0.002
   0.50000000  0.16666667  0.66666667       0.002
   0.50000000  0.16414141  0.66414141       0.002
   0.50000000  0.16161616  0.66161616       0.002
   0.50000000  0.15909091  0.65909091       0.002
   0.50000000  0.15656566  0.65656566       0.002
   0.50000000  0.15404040  0.65404040       0.002
   0.50000000  0.15151515  0.65151515       0.002
   0.50000000  0.14898990  0.64898990       0.002
   0.50000000  0.14646465  0.64646465       0.002
   0.50000000  0.14393939  0.64393939       0.002
   0.50000000  0.14141414  0.64141414       0.002
   0.50000000  0.13888889  0.63888889       0.002
   0.50000000  0.13636364  0.63636364       0.002
   0.50000000  0.13383838  0.63383838       0.002
   0.50000000  0.13131313  0.63131313       0.002
   0.50000000  0.12878788  0.62878788       0.002
   0.50000000  0.12626263  0.62626263       0.002
   0.50000000  0.12373737  0.62373737       0.002
   0.50000000  0.12121212  0.62121212       0.002
   0.50000000  0.11868687  0.61868687       0.002
   0.50000000  0.11616162  0.61616162       0.002
   0.50000000  0.11363636  0.61363636       0.002
   0.50000000  0.11111111  0.61111111       0.002
   0.50000000  0.10858586  0.60858586       0.002
   0.50000000  0.10606061  0.60606061       0.002
   0.50000000  0.10353535  0.60353535       0.002
   0.50000000  0.10101010  0.60101010       0.002
   0.50000000  0.09848485  0.59848485       0.002
   0.50000000  0.09595960  0.59595960       0.002
   0.50000000  0.09343434  0.59343434       0.002
   0.50000000  0.09090909  0.59090909       0.002
   0.50000000  0.08838384  0.58838384       0.002
   0.50000000  0.08585859  0.58585859       0.002
   0.50000000  0.08333333  0.58333333       0.002
   0.50000000  0.08080808  0.58080808       0.002
   0.50000000  0.07828283  0.57828283       0.002
   0.50000000  0.07575758  0.57575758       0.002
   0.50000000  0.07323232  0.57323232       0.002
   0.50000000  0.07070707  0.57070707       0.002
   0.50000000  0.06818182  0.56818182       0.002
   0.50000000  0.06565657  0.56565657       0.002
   0.50000000  0.06313131  0.56313131       0.002
   0.50000000  0.06060606  0.56060606       0.002
   0.50000000  0.05808081  0.55808081       0.002
   0.50000000  0.05555556  0.55555556       0.002
   0.50000000  0.05303030  0.55303030       0.002
   0.50000000  0.05050505  0.55050505       0.002
   0.50000000  0.04797980  0.54797980       0.002
   0.50000000  0.04545455  0.54545455       0.002
   0.50000000  0.04292929  0.54292929       0.002
   0.50000000  0.04040404  0.54040404       0.002
   0.50000000  0.03787879  0.53787879       0.002
[...]
  band No.  band energies     occupation 
      1       4.7014      2.00000
      2       5.4318      2.00000
      3      11.7908      0.00000
      4      12.3199      0.00000
      5      15.6440      0.00000
      6      17.3088      0.00000
      7      33.5529      0.00000
      8      34.6596      0.00000
      9      35.6834      0.00000
     10      42.3130      0.00000
     11      42.6428      0.00000
     12      43.5573      0.00000
     13      44.2774      0.00000
     14      45.4751      0.00000
     15      50.9287      0.00000
     16      51.5205      0.00000

 k-point   581 :       0.5000    0.0480    0.5480
  band No.  band energies     occupation 
      1       4.6924      2.00000
      2       5.4230      2.00000
      3      11.8669      0.00000
      4      12.3736      0.00000
      5      15.5507      0.00000
      6      17.2407      0.00000
      7      33.6042      0.00000
      8      34.7491      0.00000
      9      35.6821      0.00000
     10      42.3320      0.00000
     11      42.6363      0.00000
     12      43.5467      0.00000
     13      44.2194      0.00000
     14      45.4493      0.00000
     15      51.0046      0.00000
     16      51.5706      0.00000

 k-point   582 :       0.5000    0.0455    0.5455
  band No.  band energies     occupation 
      1       4.6839      2.00000
      2       5.4147      2.00000
      3      11.9429      0.00000
      4      12.4260      0.00000
      5      15.4583      0.00000
      6      17.1745      0.00000
      7      33.6530      0.00000
      8      34.8355      0.00000
      9      35.6807      0.00000
     10      42.3511      0.00000
     11      42.6301      0.00000
     12      43.5360      0.00000
     13      44.1631      0.00000
     14      45.4233      0.00000
     15      51.0808      0.00000
     16      51.6223      0.00000

 k-point   583 :       0.5000    0.0429    0.5429
  band No.  band energies     occupation 
      1       4.6759      2.00000
      2       5.4068      2.00000
      3      12.0187      0.00000
      4      12.4769      0.00000
      5      15.3671      0.00000
      6      17.1105      0.00000
      7      33.6995      0.00000
      8      34.9187      0.00000
      9      35.6795      0.00000
     10      42.3702      0.00000
     11      42.6243      0.00000
     12      43.5252      0.00000
     13      44.1089      0.00000
     14      45.3975      0.00000
     15      51.1571      0.00000
     16      51.6758      0.00000

 k-point   584 :       0.5000    0.0404    0.5404
  band No.  band energies     occupation 
      1       4.6683      2.00000
      2       5.3993      2.00000
      3      12.0941      0.00000
      4      12.5264      0.00000
      5      15.2770      0.00000
      6      17.0488      0.00000
      7      33.7436      0.00000
      8      34.9985      0.00000
      9      35.6784      0.00000
     10      42.3891      0.00000
     11      42.6188      0.00000
     12      43.5141      0.00000
     13      44.0569      0.00000
     14      45.3718      0.00000
     15      51.2337      0.00000
     16      51.7308      0.00000

 k-point   585 :       0.5000    0.0379    0.5379
  band No.  band energies     occupation 
      1       4.6612      2.00000
      2       5.3924      2.00000
      3      12.1692      0.00000
      4      12.5741      0.00000
      5      15.1883      0.00000
      6      16.9895      0.00000
      7      33.7852      0.00000
      8      35.0747      0.00000
      9      35.6774      0.00000
     10      42.4078      0.00000
     11      42.6136      0.00000
     12      43.5027      0.00000
     13      44.0076      0.00000
     14      45.3464      0.00000
     15      51.3103      0.00000
     16      51.7872      0.00000

 k-point   586 :       0.5000    0.0354    0.5354
  band No.  band energies     occupation 
      1       4.6546      2.00000
      2       5.3858      2.00000
      3      12.2436      0.00000
      4      12.6200      0.00000
      5      15.1010      0.00000
      6      16.9328      0.00000
      7      33.8244      0.00000
      8      35.1472      0.00000
      9      35.6764      0.00000
     10      42.4261      0.00000
     11      42.6088      0.00000
     12      43.4910      0.00000
     13      43.9613      0.00000
     14      45.3216      0.00000
     15      51.3870      0.00000
     16      51.8447      0.00000

 k-point   587 :       0.5000    0.0328    0.5328
  band No.  band energies     occupation 
      1       4.6484      2.00000
      2       5.3797      2.00000
      3      12.3172      0.00000
      4      12.6638      0.00000
      5      15.0154      0.00000
      6      16.8789      0.00000
      7      33.8609      0.00000
      8      35.2156      0.00000
      9      35.6755      0.00000
     10      42.4439      0.00000
     11      42.6042      0.00000
     12      43.4787      0.00000
     13      43.9182      0.00000
     14      45.2975      0.00000
     15      51.4636      0.00000
     16      51.9031      0.00000

 k-point   588 :       0.5000    0.0303    0.5303
  band No.  band energies     occupation 
      1       4.6427      2.00000
      2       5.3741      2.00000
      3      12.3899      0.00000
      4      12.7055      0.00000
      5      14.9317      0.00000
      6      16.8279      0.00000
      7      33.8950      0.00000
      8      35.2799      0.00000
      9      35.6747      0.00000
     10      42.4611      0.00000
     11      42.6001      0.00000
     12      43.4660      0.00000
     13      43.8785      0.00000
     14      45.2742      0.00000
     15      51.5402      0.00000
     16      51.9623      0.00000

 k-point   589 :       0.5000    0.0278    0.5278
  band No.  band energies     occupation 
      1       4.6374      2.00000
      2       5.3689      2.00000
      3      12.4612      0.00000
      4      12.7448      0.00000
      5      14.8501      0.00000
      6      16.7800      0.00000
      7      33.9264      0.00000
      8      35.3397      0.00000
      9      35.6739      0.00000
     10      42.4775      0.00000
     11      42.5962      0.00000
     12      43.4528      0.00000
     13      43.8424      0.00000
     14      45.2520      0.00000
     15      51.6164      0.00000
     16      52.0220      0.00000

 k-point   590 :       0.5000    0.0253    0.5253
  band No.  band energies     occupation 
      1       4.6326      2.00000
      2       5.3642      2.00000
      3      12.5309      0.00000
      4      12.7815      0.00000
      5      14.7711      0.00000
      6      16.7354      0.00000
      7      33.9551      0.00000
      8      35.3952      0.00000
      9      35.6731      0.00000
     10      42.4931      0.00000
     11      42.5927      0.00000
     12      43.4392      0.00000
     13      43.8104      0.00000
     14      45.2309      0.00000
     15      51.6924      0.00000
     16      52.0816      0.00000

 k-point   591 :       0.5000    0.0227    0.5227
  band No.  band energies     occupation 
      1       4.6282      2.00000
      2       5.3599      2.00000
      3      12.5985      0.00000
      4      12.8155      0.00000
      5      14.6951      0.00000
      6      16.6944      0.00000
      7      33.9813      0.00000
      8      35.4461      0.00000
      9      35.6725      0.00000
     10      42.5077      0.00000
     11      42.5895      0.00000
     12      43.4254      0.00000
     13      43.7822      0.00000
     14      45.2112      0.00000
     15      51.7678      0.00000
     16      52.1408      0.00000

 k-point   592 :       0.5000    0.0202    0.5202
  band No.  band energies     occupation 
      1       4.6243      2.00000
      2       5.3560      2.00000
      3      12.6635      0.00000
      4      12.8465      0.00000
      5      14.6226      0.00000
      6      16.6570      0.00000
      7      34.0047      0.00000
      8      35.4920      0.00000
      9      35.6719      0.00000
     10      42.5212      0.00000
     11      42.5866      0.00000
     12      43.4115      0.00000
     13      43.7578      0.00000
     14      45.1931      0.00000
     15      51.8423      0.00000
     16      52.1991      0.00000

 k-point   593 :       0.5000    0.0177    0.5177
  band No.  band energies     occupation 
      1       4.6209      2.00000
      2       5.3527      2.00000
      3      12.7250      0.00000
      4      12.8744      0.00000
      5      14.5544      0.00000
      6      16.6235      0.00000
      7      34.0253      0.00000
      8      35.5330      0.00000
      9      35.6714      0.00000
     10      42.5334      0.00000
     11      42.5841      0.00000
     12      43.3981      0.00000
     13      43.7371      0.00000
     14      45.1765      0.00000
     15      51.9156      0.00000
     16      52.2556      0.00000

 k-point   594 :       0.5000    0.0152    0.5152
  band No.  band energies     occupation 
      1       4.6179      2.00000
      2       5.3497      2.00000
      3      12.7824      0.00000
      4      12.8990      0.00000
      5      14.4913      0.00000
      6      16.5940      0.00000
      7      34.0434      0.00000
      8      35.5688      0.00000
      9      35.6709      0.00000
     10      42.5443      0.00000
     11      42.5819      0.00000
     12      43.3853      0.00000
     13      43.7199      0.00000
     14      45.1619      0.00000
     15      51.9870      0.00000
     16      52.3096      0.00000

 k-point   595 :       0.5000    0.0126    0.5126
  band No.  band energies     occupation 
      1       4.6154      2.00000
      2       5.3472      2.00000
      3      12.8344      0.00000
      4      12.9201      0.00000
      5      14.4344      0.00000
      6      16.5688      0.00000
      7      34.0586      0.00000
      8      35.5994      0.00000
      9      35.6706      0.00000
     10      42.5538      0.00000
     11      42.5801      0.00000
     12      43.3737      0.00000
     13      43.7058      0.00000
     14      45.1493      0.00000
     15      52.0555      0.00000
     16      52.3598      0.00000

 k-point   596 :       0.5000    0.0101    0.5101
  band No.  band energies     occupation 
      1       4.6133      2.00000
      2       5.3452      2.00000
      3      12.8800      0.00000
      4      12.9376      0.00000
      5      14.3849      0.00000
      6      16.5479      0.00000
      7      34.0712      0.00000
      8      35.6246      0.00000
      9      35.6703      0.00000
     10      42.5616      0.00000
     11      42.5786      0.00000
     12      43.3635      0.00000
     13      43.6948      0.00000
     14      45.1388      0.00000
     15      52.1197      0.00000
     16      52.4047      0.00000

 k-point   597 :       0.5000    0.0076    0.5076
  band No.  band energies     occupation 
      1       4.6117      2.00000
      2       5.3436      2.00000
      3      12.9176      0.00000
      4      12.9514      0.00000
      5      14.3442      0.00000
      6      16.5315      0.00000
      7      34.0809      0.00000
      8      35.6443      0.00000
      9      35.6700      0.00000
     10      42.5678      0.00000
     11      42.5774      0.00000
     12      43.3553      0.00000
     13      43.6865      0.00000
     14      45.1305      0.00000
     15      52.1773      0.00000
     16      52.4427      0.00000

 k-point   598 :       0.5000    0.0051    0.5051
  band No.  band energies     occupation 
      1       4.6105      2.00000
      2       5.3425      2.00000
      3      12.9458      0.00000
      4      12.9613      0.00000
      5      14.3137      0.00000
      6      16.5197      0.00000
      7      34.0879      0.00000
      8      35.6584      0.00000
      9      35.6698      0.00000
     10      42.5723      0.00000
     11      42.5766      0.00000
     12      43.3492      0.00000
     13      43.6807      0.00000
     14      45.1246      0.00000
     15      52.2245      0.00000
     16      52.4716      0.00000

 k-point   599 :       0.5000    0.0025    0.5025
  band No.  band energies     occupation 
      1       4.6099      2.00000
      2       5.3418      2.00000
      3      12.9633      0.00000
      4      12.9673      0.00000
      5      14.2949      0.00000
      6      16.5126      0.00000
      7      34.0921      0.00000
      8      35.6669      0.00000
      9      35.6697      0.00000
     10      42.5750      0.00000
     11      42.5761      0.00000
     12      43.3454      0.00000
     13      43.6773      0.00000
     14      45.1209      0.00000
     15      52.2564      0.00000
     16      52.4908      0.00000

 k-point   600 :       0.5000    0.0000    0.5000
  band No.  band energies     occupation 
      1       4.6096      2.00000
      2       5.3416      2.00000
      3      12.9693      0.00000
      4      12.9693      0.00000
      5      14.2884      0.00000
      6      16.5103      0.00000
      7      34.0935      0.00000
      8      35.6697      0.00000
      9      35.6697      0.00000
     10      42.5759      0.00000
     11      42.5759      0.00000
     12      43.3441      0.00000
     13      43.6761      0.00000
     14      45.1197      0.00000
     15      52.2678      0.00000
     16      52.4960      0.00000


--------------------------------------------------------------------------------------------------------


 soft charge-density along one line, spin component           1
         0         1         2         3         4         5         6         7         8         9
 total charge-density along one line
 
 pseudopotential strength for first ion, spin component:           1
 18.001  -0.003   0.000  -0.000   0.000  -0.000   0.000   0.000
 -0.003   0.005   0.000   0.000   0.000   0.000   0.000   0.000
  0.000   0.000   4.101  -0.000  -0.000  -0.006   0.000   0.000
 -0.000   0.000  -0.000   4.101  -0.000   0.000  -0.006   0.000
  0.000   0.000  -0.000  -0.000   4.101   0.000   0.000  -0.006
 -0.000   0.000  -0.006   0.000   0.000   0.005  -0.000  -0.000
  0.000   0.000   0.000  -0.006   0.000  -0.000   0.005  -0.000
  0.000   0.000   0.000   0.000  -0.006  -0.000  -0.000   0.005
 total augmentation occupancy for first ion, spin component:           1
  1.832  -0.155   0.000   0.000   0.000   0.000   0.000   0.000
 -0.155   1.231   0.000   0.000   0.000   0.000   0.000   0.000
  0.000   0.000   0.722  -0.000   0.000  -0.400   0.000  -0.000
  0.000   0.000  -0.000   0.722  -0.000   0.000  -0.400   0.000
  0.000   0.000   0.000  -0.000   0.722   0.000   0.000  -0.400
  0.000   0.000  -0.400   0.000   0.000   0.274  -0.000   0.000
  0.000   0.000   0.000  -0.400   0.000   0.000   0.274  -0.000
  0.000   0.000  -0.000   0.000  -0.400   0.000   0.000   0.274


------------------------ aborting loop because EDIFF is reached ----------------------------------------


    CHARGE:  cpu time    0.0360: real time    0.0360
    FORLOC:  cpu time    0.0000: real time    0.0001
    FORNL :  cpu time    0.0260: real time    0.0250
    STRESS:  cpu time    0.5469: real time    0.5460
    FORCOR:  cpu time    0.0010: real time    0.0018
    FORHAR:  cpu time    0.0010: real time    0.0005
    MIXING:  cpu time    0.0000: real time    0.0002
    OFIELD:  cpu time    0.0000: real time    0.0000

  FORCE on cell =-STRESS in cart. coord.  units (eV):
  Direction    XX          YY          ZZ          XY          YZ          ZX
  --------------------------------------------------------------------------------------
  Alpha Z     2.26997     2.26997     2.26997
  Ewald     -45.14259   -45.14259   -45.14259    -0.00000     0.00000    -0.00000
  Hartree     0.15992     0.15992     0.15992     0.00000     0.00000     0.00000
  E(xc)     -12.62914   -12.62914   -12.62914    -0.00000    -0.00000    -0.00000
  Local      -5.25244    -5.25244    -5.25244     0.00001     0.00001     0.00001
  n-local    36.77821    39.90321    40.28203    -0.31367    -0.39808    -0.44880
  augment    -6.48713    -6.48713    -6.48713    -0.00001    -0.00001    -0.00001
  Kinetic    44.36244    23.05781    16.15366     3.78085     6.72218     6.34030
  Fock        0.00000     0.00000     0.00000     0.00000     0.00000     0.00000
  -------------------------------------------------------------------------------------
  Total      -0.23562    -0.23562    -0.23562     0.00000    -0.00000    -0.00000
  in kB     -25.45542   -25.45542   -25.45542     0.00000    -0.00000    -0.00000
  external pressure =      -25.46 kB  Pullay stress =        0.00 kB


 VOLUME and BASIS-vectors are now :
 -----------------------------------------------------------------------------
  energy-cutoff  :      500.00
  volume of cell :       14.83
      direct lattice vectors                 reciprocal lattice vectors
     1.950000000  1.950000000  0.000000000     0.256410256  0.256410256 -0.256410256
     0.000000000  1.950000000  1.950000000    -0.256410256  0.256410256  0.256410256
     1.950000000  0.000000000  1.950000000     0.256410256 -0.256410256  0.256410256

  length of vectors
     2.757716447  2.757716447  2.757716447     0.444115592  0.444115592  0.444115592


 FORCES acting on ions
    electron-ion (+dipol)            ewald-force                    non-local-force                 convergence-correction
 -----------------------------------------------------------------------------------------------
   -.118E-14 -.618E-15 0.429E-15   0.262E-15 0.141E-15 0.191E-15   -.103E-24 -.310E-24 -.310E-24   -.166E-16 0.613E-18 0.490E-16
 -----------------------------------------------------------------------------------------------
   -.118E-14 -.618E-15 0.429E-15   0.262E-15 0.141E-15 0.191E-15   -.103E-24 -.310E-24 -.310E-24   -.166E-16 0.613E-18 0.490E-16
 
 
 POSITION                                       TOTAL-FORCE (eV/Angst)
 -----------------------------------------------------------------------------------
      0.00000      0.00000      0.00000        -0.000000      0.000000      0.000000
 -----------------------------------------------------------------------------------
    total drift:                               -0.000000     -0.000000      0.000000


--------------------------------------------------------------------------------------------------------



  FREE ENERGIE OF THE ION-ELECTRON SYSTEM (eV)
  ---------------------------------------------------
  free  energy   TOTEN  =        -5.34556431 eV

  energy  without entropy=       -5.34403026  energy(sigma->0) =       -5.34479728
 


--------------------------------------------------------------------------------------------------------


    POTLOK:  cpu time    0.0030: real time    0.0033


--------------------------------------------------------------------------------------------------------


 writing wavefunctions
     LOOP+:  cpu time   21.9997: real time   22.1761
    4ORBIT:  cpu time    0.0000: real time    0.0000

 total amount of memory used by VASP on root node    49725. kBytes
========================================================================

   base      :      30000. kBytes
   nonl-proj :      15366. kBytes
   fftplans  :         93. kBytes
   grid      :        270. kBytes
   one-center:          3. kBytes
   wavefun   :       3993. kBytes
 
  
  
 General timing and accounting informations for this job:
 ========================================================
  
                  Total CPU time used (sec):       23.041
                            User time (sec):       22.849
                          System time (sec):        0.193
                         Elapsed time (sec):       23.784
  
                   Maximum memory used (kb):       97996.
                   Average memory used (kb):           0.
  
                          Minor page faults:        18046
                          Major page faults:            0
                 Voluntary context switches:         3168
