FCC Silicon                             
   3.56700000000000     
     0.510976    0.510976    0.000000
     0.000000    0.510976    0.510976
     0.510976    0.000000    0.510976
   C 
     2
Direct
  0.000000  0.000000  0.000000
  0.250000  0.250000  0.250000
 
   28   28   28
  16.155      17.034      18.992      20.561      20.625      19.088      16.620      13.990      11.621      9.6811    
  8.2230      7.1828      6.4796      6.0653      5.9271      6.0653      6.4796      7.1829      8.2231      9.6811    
  11.621      13.990      16.620      19.088      20.625      20.560      18.992      17.034      17.034      18.625    
  20.616      21.594      20.915      18.914      16.370      13.895      11.759      10.088      8.8633      8.0019    
  7.4406      7.1585      7.1584      7.4405      8.0019      8.8633      10.088      11.759      13.895      16.370    
  18.914      20.915      21.594      20.617      18.625      17.035      18.992      20.616      21.891      21.873    
  20.472      18.258      15.884      13.724      11.959      10.628      9.6633      8.9904      8.5804      8.4407    
  8.5803      8.9903      9.6633      10.628      11.959      13.724      15.884      18.258      20.472      21.873    
  21.892      20.617      18.992      18.260      20.561      21.594      21.873      21.024      19.308      17.258    
  15.280      13.592      12.285      11.314      10.600      10.106      9.8456      9.8456      10.106      10.600    
  11.314      12.285      13.592      15.280      17.258      19.308      21.024      21.873      21.594      20.560    
  19.664      19.664      20.625      20.915      20.472      19.308      17.750      16.144      14.717      13.592    
  12.744      12.093      11.589      11.250      11.128      11.250      11.589      12.093      12.744      13.592    
  14.717      16.144      17.750      19.308      20.472      20.915      20.625      20.035      19.744      20.035    
  19.088      18.914      18.258      17.258      16.144      15.120      14.316      13.724      13.255      12.844    
  12.503      12.302      12.302      12.502      12.844      13.255      13.724      14.316      15.120      16.144    
  17.258      18.258      18.915      19.088      18.890      18.645      18.645      18.889      16.620      16.370    
  15.884      15.280      14.717      14.316      14.073      13.895      13.690      13.452      13.246      13.164    
  13.246      13.452      13.690      13.895      14.073      14.316      14.717      15.279      15.883      16.370    
  16.620      16.618      16.487      16.414      16.487      16.617      13.990      13.895      13.724      13.592    
  13.592      13.724      13.895      13.990      13.964      13.856      13.761      13.761      13.856      13.964    
  13.989      13.895      13.724      13.592      13.592      13.724      13.895      13.989      13.964      13.856    
  13.761      13.761      13.856      13.964      11.621      11.759      11.959      12.285      12.744      13.255    
  13.690      13.964      14.066      14.061      14.044      14.061      14.067      13.964      13.690      13.255    
  12.744      12.285      11.959      11.759      11.621      11.476      11.309      11.167      11.111      11.167    
  11.309      11.476      9.6811      10.088      10.628      11.314      12.093      12.844      13.452      13.856    
  14.061      14.130      14.131      14.061      13.856      13.452      12.844      12.093      11.314      10.628    
  10.088      9.6814      9.3635      9.1018      8.8982      8.7826      8.7827      8.8984      9.1018      9.3633    
  8.2230      8.8633      9.6633      10.600      11.589      12.503      13.246      13.761      14.044      14.131    
  14.044      13.761      13.246      12.503      11.589      10.600      9.6632      8.8631      8.2229      7.7237    
  7.3366      7.0478      6.8636      6.7995      6.8634      7.0476      7.3364      7.7236      7.1828      8.0019    
  8.9904      10.106      11.250      12.302      13.164      13.761      14.061      14.061      13.761      13.164    
  12.302      11.250      10.106      8.9905      8.0019      7.1827      6.5306      6.0242      5.6452      5.3878    
  5.2562      5.2561      5.3876      5.6452      6.0244      6.5308      6.4796      7.4406      8.5804      9.8456    
  11.128      12.302      13.246      13.856      14.067      13.856      13.246      12.302      11.128      9.8455    
  8.5803      7.4407      6.4798      5.7040      5.0957      4.6346      4.3078      4.1114      4.0456      4.1114    
  4.3079      4.6348      5.0959      5.7039      6.0653      7.1585      8.4407      9.8456      11.250      12.502    
  13.452      13.964      13.964      13.452      12.503      11.250      9.8455      8.4405      7.1583      6.0653    
  5.1762      4.4753      3.9390      3.5484      3.2924      3.1655      3.1656      3.2925      3.5485      3.9390    
  4.4751      5.1760      5.9271      7.1584      8.5803      10.106      11.589      12.844      13.690      13.989    
  13.690      12.844      11.589      10.106      8.5803      7.1583      5.9269      4.9153      4.1143      3.4989    
  3.0440      2.7310      2.5479      2.4877      2.5480      2.7310      3.0439      3.4988      4.1143      4.9154    
  6.0653      7.4405      8.9903      10.600      12.093      13.255      13.895      13.895      13.255      12.093    
  10.600      8.9905      7.4407      6.0653      4.9153      3.9949      3.2837      2.7534      2.3787      2.1401    
  2.0242      2.0242      2.1400      2.3786      2.7534      3.2838      3.9952      4.9155      6.4796      8.0019    
  9.6633      11.314      12.744      13.724      14.073      13.724      12.744      11.314      9.6632      8.0019    
  6.4798      5.1762      4.1143      3.2837      2.6580      2.2081      1.9075      1.7359      1.6801      1.7358    
  1.9075      2.2082      2.6582      3.2838      4.1143      5.1760      7.1829      8.8633      10.628      12.285    
  13.592      14.316      14.316      13.592      12.285      10.628      8.8631      7.1827      5.7040      4.4753    
  3.4989      2.7534      2.2081      1.8319      1.5977      1.4858      1.4858      1.5977      1.8319      2.2082    
  2.7534      3.4988      4.4751      5.7040      8.2231      10.088      11.959      13.592      14.717      15.120    
  14.717      13.592      11.959      10.088      8.2229      6.5306      5.0957      3.9390      3.0440      2.3787    
  1.9075      1.5977      1.4231      1.3668      1.4231      1.5977      1.9075      2.3786      3.0439      3.9389    
  5.0958      6.5308      9.6811      11.759      13.724      15.280      16.144      16.144      15.279      13.724    
  11.759      9.6814      7.7237      6.0242      4.6346      3.5484      2.7310      2.1401      1.7359      1.4858    
  1.3668      1.3668      1.4858      1.7358      2.1400      2.7310      3.5485      4.6347      6.0243      7.7236    
  11.621      13.895      15.884      17.258      17.750      17.258      15.883      13.895      11.621      9.3635    
  7.3366      5.6452      4.3078      3.2924      2.5479      2.0242      1.6801      1.4858      1.4231      1.4858    
  1.6801      2.0242      2.5480      3.2925      4.3080      5.6452      7.3364      9.3633      13.990      16.370    
  18.258      19.308      19.308      18.258      16.370      13.989      11.476      9.1018      7.0478      5.3878    
  4.1114      3.1655      2.4877      2.0242      1.7358      1.5977      1.5977      1.7358      2.0242      2.4877    
  3.1655      4.1114      5.3877      7.0476      9.1017      11.476      16.620      18.914      20.472      21.024    
  20.472      18.915      16.620      13.964      11.309      8.8982      6.8636      5.2562      4.0456      3.1656    
  2.5480      2.1400      1.9075      1.8319      1.9075      2.1400      2.5480      3.1655      4.0456      5.2560    
  6.8635      8.8983      11.309      13.964      19.088      20.915      21.873      21.873      20.915      19.088    
  16.618      13.856      11.167      8.7826      6.7995      5.2561      4.1114      3.2925      2.7310      2.3786    
  2.2082      2.2082      2.3786      2.7310      3.2925      4.1114      5.2560      6.7995      8.7827      11.167    
  13.856      16.617      20.625      21.594      21.892      21.594      20.625      18.890      16.487      13.761    
  11.111      8.7827      6.8634      5.3876      4.3079      3.5485      3.0439      2.7534      2.6582      2.7534    
  3.0439      3.5485      4.3080      5.3877      6.8635      8.7827      11.111      13.761      16.487      18.889    
  20.560      20.617      20.617      20.560      20.035      18.645      16.414      13.761      11.167      8.8984    
  7.0476      5.6452      4.6348      3.9390      3.4988      3.2838      3.2838      3.4988      3.9389      4.6347    
  5.6452      7.0476      8.8983      11.167      13.761      16.414      18.645      20.035      18.992      18.625    
  18.992      19.664      19.744      18.645      16.487      13.856      11.309      9.1018      7.3364      6.0244    
  5.0959      4.4751      4.1143      3.9952      4.1143      4.4751      5.0958      6.0243      7.3364      9.1017    
  11.309      13.856      16.487      18.645      19.744      19.663      17.034      17.035      18.260      19.664    
  20.035      18.889      16.617      13.964      11.476      9.3633      7.7236      6.5308      5.7039      5.1760    
  4.9154      4.9155      5.1760      5.7040      6.5308      7.7236      9.3633      11.476      13.964      16.617    
  18.889      20.035      19.663      18.259      17.034      18.625      20.616      21.594      20.915      18.914    
  16.370      13.895      11.759      10.088      8.8633      8.0019      7.4406      7.1585      7.1584      7.4405    
  8.0019      8.8633      10.088      11.759      13.895      16.370      18.914      20.915      21.594      20.617    
  18.625      17.035      18.625      20.518      22.088      22.274      20.952      18.720      16.290      14.073    
  12.257      10.889      9.8984      9.2082      8.7876      8.6443      8.7875      9.2080      9.8983      10.889    
  12.257      14.073      16.290      18.720      20.951      22.274      22.088      20.519      18.625      17.783    
  20.616      22.088      22.733      22.060      20.342      18.196      16.107      14.316      12.930      11.902    
  11.147      10.625      10.348      10.348      10.625      11.147      11.902      12.930      14.316      16.107    
  18.196      20.342      22.060      22.733      22.088      20.617      19.417      19.417      21.594      22.274    
  22.060      20.922      19.259      17.514      15.952      14.717      13.789      13.076      12.521      12.146    
  12.011      12.146      12.521      13.076      13.789      14.717      15.952      17.514      19.259      20.922    
  22.060      22.274      21.593      20.622      20.173      20.623      20.915      20.952      20.342      19.259    
  18.018      16.863      15.952      15.280      14.743      14.267      13.869      13.633      13.633      13.870    
  14.267      14.743      15.279      15.952      16.863      18.018      19.259      20.342      20.952      20.915    
  20.421      19.960      19.960      20.421      18.914      18.720      18.196      17.514      16.863      16.394    
  16.107      15.884      15.624      15.316      15.045      14.935      15.045      15.316      15.624      15.883    
  16.107      16.394      16.863      17.514      18.196      18.720      18.915      18.761      18.464      18.318    
  18.464      18.760      16.370      16.290      16.107      15.952      15.952      16.107      16.290      16.370    
  16.281      16.077      15.908      15.909      16.077      16.282      16.370      16.290      16.107      15.952    
  15.952      16.107      16.290      16.370      16.282      16.077      15.909      15.908      16.077      16.281    
  13.895      14.073      14.316      14.717      15.280      15.884      16.370      16.620      16.617      16.487    
  16.414      16.487      16.618      16.620      16.370      15.883      15.279      14.717      14.316      14.073    
  13.895      13.690      13.452      13.246      13.164      13.246      13.452      13.690      11.759      12.257    
  12.930      13.789      14.743      15.624      16.281      16.617      16.675      16.625      16.625      16.675    
  16.618      16.281      15.624      14.743      13.789      12.930      12.258      11.759      11.368      11.035    
  10.763      10.605      10.605      10.764      11.035      11.368      10.088      10.889      11.902      13.076    
  14.267      15.316      16.077      16.487      16.625      16.645      16.625      16.487      16.077      15.316    
  14.267      13.076      11.902      10.889      10.088      9.4743      9.0005      8.6420      8.4083      8.3259    
  8.4083      8.6419      9.0004      9.4741      8.8633      9.8984      11.147      12.521      13.869      15.045    
  15.908      16.414      16.625      16.625      16.414      15.909      15.045      13.870      12.521      11.147    
  9.8982      8.8631      8.0505      7.4286      6.9650      6.6477      6.4836      6.4835      6.6475      6.9649    
  7.4286      8.0506      8.0019      9.2082      10.625      12.146      13.633      14.935      15.909      16.487    
  16.675      16.487      15.909      14.935      13.633      12.146      10.625      9.2083      8.0019      7.0338    
  6.2845      5.7218      5.3231      5.0819      5.0007      5.0818      5.3231      5.7219      6.2848      7.0340    
  7.4406      8.7876      10.348      12.011      13.633      15.045      16.077      16.618      16.618      16.077    
  15.045      13.633      12.011      10.348      8.7876      7.4407      6.3461      5.4903      4.8408      4.3691    
  4.0589      3.9043      3.9043      4.0590      4.3693      4.8410      5.4902      6.3459      7.1585      8.6443    
  10.348      12.146      13.870      15.316      16.282      16.620      16.281      15.316      13.870      12.146    
  10.348      8.6441      7.1584      5.9404      4.9825      4.2510      3.7114      3.3390      3.1199      3.0476    
  3.1200      3.3390      3.7114      4.2509      4.9823      5.9404      7.1584      8.7875      10.625      12.521    
  14.267      15.624      16.370      16.370      15.624      14.267      12.521      10.625      8.7876      7.1584    
  5.8049      4.7315      3.9079      3.2952      2.8607      2.5823      2.4464      2.4464      2.5823      2.8606    
  3.2950      3.9078      4.7317      5.8052      7.4405      9.2080      11.147      13.076      14.743      15.883    
  16.290      15.883      14.743      13.076      11.147      9.2083      7.4407      5.9404      4.7315      3.7945    
  3.0918      2.5857      2.2456      2.0503      1.9866      2.0502      2.2456      2.5856      3.0919      3.7947    
  4.7317      5.9403      8.0019      9.8983      11.902      13.789      15.279      16.107      16.107      15.279    
  13.789      11.902      9.8982      8.0019      6.3461      4.9825      3.9079      3.0918      2.4956      2.0831    
  1.8253      1.7016      1.7016      1.8253      2.0832      2.4957      3.0919      3.9078      4.9823      6.3459    
  8.8633      10.889      12.930      14.717      15.952      16.394      15.952      14.717      12.930      10.889    
  8.8631      7.0338      5.4903      4.2510      3.2952      2.5857      2.0831      1.7523      1.5656      1.5054    
  1.5656      1.7524      2.0832      2.5856      3.2950      4.2508      5.4902      7.0341      10.088      12.257    
  14.316      15.952      16.863      16.863      15.952      14.316      12.258      10.088      8.0505      6.2845    
  4.8408      3.7114      2.8607      2.2456      1.8253      1.5656      1.4422      1.4422      1.5656      1.8253    
  2.2456      2.8606      3.7113      4.8409      6.2847      8.0506      11.759      14.073      16.107      17.514    
  18.018      17.514      16.107      14.073      11.759      9.4743      7.4286      5.7218      4.3691      3.3390    
  2.5823      2.0503      1.7016      1.5054      1.4422      1.5054      1.7016      2.0502      2.5823      3.3391    
  4.3693      5.7219      7.4285      9.4740      13.895      16.290      18.196      19.259      19.259      18.196    
  16.290      13.895      11.368      9.0005      6.9650      5.3231      4.0589      3.1199      2.4464      1.9866    
  1.7016      1.5656      1.5656      1.7016      1.9866      2.4464      3.1200      4.0590      5.3232      6.9649    
  9.0003      11.368      16.370      18.720      20.342      20.922      20.342      18.720      16.370      13.690    
  11.035      8.6420      6.6477      5.0819      3.9043      3.0476      2.4464      2.0502      1.8253      1.7524    
  1.8253      2.0502      2.4464      3.0475      3.9043      5.0818      6.6476      8.6420      11.035      13.690    
  18.914      20.951      22.060      22.060      20.952      18.915      16.282      13.452      10.763      8.4083    
  6.4836      5.0007      3.9043      3.1200      2.5823      2.2456      2.0832      2.0832      2.2456      2.5823    
  3.1200      3.9043      5.0006      6.4835      8.4084      10.764      13.452      16.281      20.915      22.274    
  22.733      22.274      20.915      18.761      16.077      13.246      10.605      8.3259      6.4835      5.0818    
  4.0590      3.3390      2.8606      2.5856      2.4957      2.5856      2.8606      3.3391      4.0590      5.0818    
  6.4835      8.3260      10.605      13.246      16.077      18.760      21.594      22.088      22.088      21.593    
  20.421      18.464      15.909      13.164      10.605      8.4083      6.6475      5.3231      4.3693      3.7114    
  3.2950      3.0919      3.0919      3.2950      3.7113      4.3693      5.3232      6.6476      8.4084      10.605    
  13.163      15.908      18.464      20.421      20.617      20.519      20.617      20.622      19.960      18.318    
  15.908      13.246      10.764      8.6419      6.9649      5.7219      4.8410      4.2509      3.9078      3.7947    
  3.9078      4.2508      4.8409      5.7219      6.9649      8.6420      10.764      13.246      15.908      18.318    
  19.960      20.622      18.625      18.625      19.417      20.173      19.960      18.464      16.077      13.452    
  11.035      9.0004      7.4286      6.2848      5.4902      4.9823      4.7317      4.7317      4.9823      5.4902    
  6.2847      7.4285      9.0003      11.035      13.452      16.077      18.464      19.960      20.173      19.417    
  17.035      17.783      19.417      20.623      20.421      18.760      16.281      13.690      11.368      9.4741    
  8.0506      7.0340      6.3459      5.9404      5.8052      5.9403      6.3459      7.0341      8.0506      9.4740    
  11.368      13.690      16.281      18.760      20.421      20.622      19.417      17.783      18.992      20.616    
  21.891      21.873      20.472      18.258      15.884      13.724      11.959      10.628      9.6633      8.9904    
  8.5804      8.4407      8.5803      8.9903      9.6633      10.628      11.959      13.724      15.884      18.258    
  20.472      21.873      21.892      20.617      18.992      18.260      20.616      22.088      22.733      22.060    
  20.342      18.196      16.107      14.316      12.930      11.902      11.147      10.625      10.348      10.348    
  10.625      11.147      11.902      12.930      14.316      16.107      18.196      20.342      22.060      22.733    
  22.088      20.617      19.417      19.417      21.891      22.733      22.618      21.498      19.800      18.004    
  16.394      15.120      14.162      13.426      12.853      12.465      12.325      12.465      12.853      13.426    
  14.162      15.120      16.394      18.004      19.800      21.498      22.618      22.733      21.891      20.766    
  20.252      20.766      21.873      22.060      21.498      20.376      19.063      17.836      16.863      16.144    
  15.568      15.056      14.626      14.369      14.370      14.627      15.056      15.568      16.144      16.863    
  17.836      19.063      20.376      21.498      22.060      21.872      21.176      20.570      20.570      21.176    
  20.472      20.342      19.800      19.063      18.354      17.836      17.514      17.258      16.958      16.596    
  16.273      16.140      16.273      16.596      16.959      17.258      17.514      17.836      18.354      19.063    
  19.800      20.342      20.472      20.177      19.730      19.520      19.730      20.177      18.258      18.196    
  18.004      17.836      17.836      18.004      18.196      18.258      18.101      17.795      17.550      17.550    
  17.795      18.101      18.258      18.196      18.004      17.836      17.836      18.004      18.196      18.258    
  18.101      17.795      17.550      17.550      17.795      18.101      15.884      16.107      16.394      16.863    
  17.514      18.196      18.720      18.914      18.760      18.464      18.318      18.464      18.761      18.915    
  18.720      18.196      17.514      16.863      16.394      16.107      15.883      15.624      15.316      15.045    
  14.935      15.045      15.316      15.624      13.724      14.316      15.120      16.144      17.258      18.258    
  18.914      19.088      18.889      18.645      18.645      18.890      19.088      18.914      18.258      17.258    
  16.144      15.120      14.316      13.724      13.255      12.844      12.502      12.302      12.302      12.503    
  12.844      13.255      11.959      12.930      14.162      15.568      16.958      18.101      18.760      18.889    
  18.721      18.608      18.721      18.889      18.761      18.101      16.958      15.568      14.162      12.930    
  11.959      11.223      10.657      10.224      9.9360      9.8334      9.9362      10.224      10.657      11.223    
  10.628      11.902      13.426      15.056      16.596      17.795      18.464      18.645      18.608      18.608    
  18.645      18.463      17.795      16.596      15.056      13.426      11.902      10.628      9.6379      8.8901    
  8.3357      7.9540      7.7550      7.7550      7.9539      8.3355      8.8900      9.6378      9.6633      11.147    
  12.853      14.626      16.273      17.550      18.318      18.645      18.721      18.645      18.318      17.550    
  16.273      14.627      12.853      11.147      9.6632      8.4732      7.5631      6.8873      6.4103      6.1205    
  6.0225      6.1204      6.4102      6.8873      7.5632      8.4734      8.9904      10.625      12.465      14.369    
  16.140      17.550      18.464      18.890      18.889      18.463      17.550      16.140      14.370      12.465    
  10.625      8.9905      7.6521      6.6122      5.8317      5.2687      4.8984      4.7131      4.7131      4.8984    
  5.2688      5.8318      6.6124      7.6521      8.5804      10.348      12.325      14.370      16.273      17.795    
  18.761      19.088      18.761      17.795      16.273      14.370      12.325      10.348      8.5804      7.1163    
  5.9668      5.0958      4.4574      4.0174      3.7578      3.6717      3.7579      4.0175      4.4575      5.0958    
  5.9667      7.1161      8.4407      10.348      12.465      14.627      16.596      18.101      18.915      18.914    
  18.101      16.596      14.627      12.465      10.348      8.4406      6.8467      5.5858      4.6243      3.9127    
  3.4085      3.0844      2.9254      2.9255      3.0844      3.4085      3.9125      4.6242      5.5858      6.8468    
  8.5803      10.625      12.853      15.056      16.959      18.258      18.720      18.258      16.958      15.056    
  12.853      10.625      8.5804      6.8467      5.4587      4.3914      3.5958      3.0232      2.6370      2.4140    
  2.3410      2.4140      2.6370      3.0231      3.5958      4.3916      5.4589      6.8467      8.9903      11.147    
  13.426      15.568      17.258      18.196      18.196      17.258      15.568      13.426      11.147      8.9905    
  7.1163      5.5858      4.3914      3.4912      2.8353      2.3805      2.0946      1.9569      1.9569      2.0946    
  2.3804      2.8354      3.4914      4.3916      5.5858      7.1161      9.6633      11.902      14.162      16.144    
  17.514      18.004      17.514      16.144      14.162      11.902      9.6632      7.6521      5.9668      4.6243    
  3.5958      2.8353      2.2967      1.9411      1.7396      1.6745      1.7396      1.9411      2.2968      2.8354    
  3.5957      4.6242      5.9667      7.6522      10.628      12.930      15.120      16.863      17.836      17.836    
  16.863      15.120      12.930      10.628      8.4732      6.6122      5.0958      3.9127      3.0232      2.3805    
  1.9411      1.6694      1.5401      1.5401      1.6694      1.9411      2.3804      3.0230      3.9125      5.0957    
  6.6124      8.4735      11.959      14.316      16.394      17.836      18.354      17.836      16.394      14.316    
  11.959      9.6379      7.5631      5.8317      4.4574      3.4085      2.6370      2.0946      1.7396      1.5401    
  1.4759      1.5401      1.7396      2.0946      2.6370      3.4085      4.4574      5.8317      7.5631      9.6378    
  13.724      16.107      18.004      19.063      19.063      18.004      16.107      13.724      11.223      8.8901    
  6.8873      5.2687      4.0174      3.0844      2.4140      1.9569      1.6745      1.5401      1.5401      1.6745    
  1.9569      2.4140      3.0845      4.0176      5.2688      6.8872      8.8898      11.223      15.884      18.196    
  19.800      20.376      19.800      18.196      15.883      13.255      10.657      8.3357      6.4103      4.8984    
  3.7578      2.9254      2.3410      1.9569      1.7396      1.6694      1.7396      1.9569      2.3410      2.9254    
  3.7579      4.8985      6.4103      8.3355      10.657      13.255      18.258      20.342      21.498      21.498    
  20.342      18.258      15.624      12.844      10.224      7.9540      6.1205      4.7131      3.6717      2.9255    
  2.4140      2.0946      1.9411      1.9411      2.0946      2.4140      2.9254      3.6716      4.7130      6.1204    
  7.9541      10.224      12.844      15.624      20.472      22.060      22.618      22.060      20.472      18.101    
  15.316      12.502      9.9360      7.7550      6.0225      4.7131      3.7579      3.0844      2.6370      2.3804    
  2.2968      2.3804      2.6370      3.0845      3.7579      4.7130      6.0223      7.7550      9.9362      12.503    
  15.316      18.101      21.873      22.733      22.733      21.872      20.177      17.795      15.045      12.302    
  9.8334      7.7550      6.1204      4.8984      4.0175      3.4085      3.0231      2.8354      2.8354      3.0230    
  3.4085      4.0176      4.8985      6.1204      7.7550      9.8334      12.301      15.045      17.795      20.177    
  21.892      22.088      21.891      21.176      19.730      17.550      14.935      12.302      9.9362      7.9539    
  6.4102      5.2688      4.4575      3.9125      3.5958      3.4914      3.5957      3.9125      4.4574      5.2688    
  6.4103      7.9541      9.9362      12.301      14.934      17.550      19.730      21.176      20.617      20.617    
  20.766      20.570      19.520      17.550      15.045      12.503      10.224      8.3355      6.8873      5.8318    
  5.0958      4.6242      4.3916      4.3916      4.6242      5.0957      5.8317      6.8872      8.3355      10.224    
  12.503      15.045      17.550      19.520      20.570      20.766      18.992      19.417      20.252      20.570    
  19.730      17.795      15.316      12.844      10.657      8.8900      7.5632      6.6124      5.9667      5.5858    
  5.4589      5.5858      5.9667      6.6124      7.5631      8.8898      10.657      12.844      15.316      17.795    
  19.730      20.570      20.252      19.417      18.260      19.417      20.766      21.176      20.177      18.101    
  15.624      13.255      11.223      9.6378      8.4734      7.6521      7.1161      6.8468      6.8467      7.1161    
  7.6522      8.4735      9.6378      11.223      13.255      15.624      18.101      20.177      21.176      20.766    
  19.417      18.260      20.561      21.594      21.873      21.024      19.308      17.258      15.279      13.592    
  12.285      11.314      10.600      10.106      9.8456      9.8456      10.106      10.600      11.314      12.285    
  13.592      15.280      17.258      19.308      21.024      21.873      21.594      20.560      19.664      19.664    
  21.594      22.274      22.060      20.922      19.259      17.514      15.952      14.717      13.789      13.076    
  12.521      12.146      12.011      12.146      12.521      13.076      13.789      14.717      15.952      17.514    
  19.259      20.922      22.060      22.274      21.593      20.622      20.173      20.623      21.873      22.060    
  21.498      20.376      19.063      17.836      16.863      16.144      15.568      15.056      14.626      14.369    
  14.370      14.627      15.056      15.568      16.144      16.863      17.836      19.063      20.376      21.498    
  22.060      21.872      21.176      20.570      20.570      21.176      21.024      20.922      20.376      19.618    
  18.889      18.354      18.018      17.750      17.436      17.053      16.709      16.568      16.709      17.053    