    2    2    1    1
  0.6054942E+01  0.2577617E-09  0.2577617E-09  0.2577617E-09  0.5000000E-15
  1.000000000000000E-004
  CAR 
 FCC Silicon                             
      8    600     16
 
  0.0000000E+00  0.0000000E+00  0.0000000E+00  0.1666667E-02
    1      -11.669505   1.000000
    2        9.025333   1.000000
    3        9.025474   1.000000
    4        9.025474   1.000000
    5       14.392599   0.000000
    6       14.392783   0.000000
    7       14.392783   0.000000
    8       20.894328   0.000000
    9       27.387715   0.000000
   10       34.722455   0.000000
   11       34.722455   0.000000
   12       35.659840   0.000000
   13       35.659904   0.000000
   14       35.659905   0.000000
   15       42.505417   0.000000
   16       54.039053   0.000000
 
  0.5050505E-02  0.0000000E+00  0.5050505E-02  0.1666667E-02
    1      -11.668603   1.000000
    2        9.021558   1.000000
    3        9.021655   1.000000
    4        9.023043   1.000000
    5       14.391944   0.000000
    6       14.397238   0.000000
    7       14.397359   0.000000
    8       20.895355   0.000000
    9       27.389392   0.000000
   10       34.645784   0.000000
   11       34.723598   0.000000
   12       35.661973   0.000000
   13       35.662016   0.000000
   14       35.733913   0.000000
   15       42.513515   0.000000
   16       54.037026   0.000000
 
  0.1010101E-01  0.0000000E+00  0.1010101E-01  0.1666667E-02
    1      -11.665894   1.000000
    2        9.010163   1.000000
    3        9.010257   1.000000
    4        9.016171   1.000000
    5       14.389620   0.000000
    6       14.410925   0.000000
    7       14.411048   0.000000
    8       20.898442   0.000000
    9       27.394441   0.000000
   10       34.461960   0.000000
   11       34.727026   0.000000
   12       35.668316   0.000000
   13       35.668360   0.000000
   14       35.911367   0.000000
   15       42.537874   0.000000
   16       54.032480   0.000000
 
  0.1515152E-01  0.0000000E+00  0.1515152E-01  0.1666667E-02
    1      -11.661378   1.000000
    2        8.991276   1.000000
    3        8.991370   1.000000
    4        9.004237   1.000000
    5       14.385752   0.000000
    6       14.433598   0.000000
    7       14.433721   0.000000
    8       20.903519   0.000000
    9       27.402809   0.000000
   10       34.229830   0.000000
   11       34.732739   0.000000
   12       35.678870   0.000000
   13       35.678913   0.000000
   14       36.130066   0.000000
   15       42.578618   0.000000
   16       54.012788   0.000000
 
  0.2020202E-01  0.0000000E+00  0.2020202E-01  0.1666667E-02
    1      -11.655056   1.000000
    2        8.965119   1.000000
    3        8.965213   1.000000
    4        8.987578   1.000000
    5       14.380353   0.000000
    6       14.465058   0.000000
    7       14.465182   0.000000
    8       20.910525   0.000000
    9       27.414501   0.000000
   10       33.976583   0.000000
   11       34.740737   0.000000
   12       35.693643   0.000000
   13       35.693686   0.000000
   14       36.364265   0.000000
   15       42.635968   0.000000
   16       53.991413   0.000000
 
  0.2525253E-01  0.0000000E+00  0.2525253E-01  0.1666667E-02
    1      -11.646926   1.000000
    2        8.932256   1.000000
    3        8.932346   1.000000
    4        8.966256   1.000000
    5       14.373438   0.000000
    6       14.505072   0.000000
    7       14.505196   0.000000
    8       20.919394   0.000000
    9       27.429538   0.000000
   10       33.713379   0.000000
   11       34.751174   0.000000
   12       35.714109   0.000000
   13       35.714148   0.000000
   14       36.602630   0.000000
   15       42.710210   0.000000
   16       53.964445   0.000000
 
  0.3030303E-01  0.0000000E+00  0.3030303E-01  0.1666667E-02
    1      -11.636991   1.000000
    2        8.892398   1.000000
    3        8.892489   1.000000
    4        8.940257   1.000000
    5       14.365025   0.000000
    6       14.553250   0.000000
    7       14.553375   0.000000
    8       20.929949   0.000000
    9       27.447806   0.000000
   10       33.445274   0.000000
   11       34.763742   0.000000
   12       35.737299   0.000000
   13       35.737339   0.000000
   14       36.839778   0.000000
   15       42.801639   0.000000
   16       53.930859   0.000000
 
  0.3535354E-01  0.0000000E+00  0.3535354E-01  0.1666667E-02
    1      -11.625250   1.000000
    2        8.846228   1.000000
    3        8.846318   1.000000
    4        8.909664   1.000000
    5       14.355137   0.000000
    6       14.609250   0.000000
    7       14.609375   0.000000
    8       20.942059   0.000000
    9       27.469312   0.000000
   10       33.175098   0.000000
   11       34.778594   0.000000
   12       35.764699   0.000000
   13       35.764739   0.000000
   14       37.072709   0.000000
   15       42.910572   0.000000
   16       53.892547   0.000000
 
  0.4040404E-01  0.0000000E+00  0.4040404E-01  0.1666667E-02
    1      -11.611705   1.000000
    2        8.794145   1.000000
    3        8.794234   1.000000
    4        8.874537   1.000000
    5       14.343803   0.000000
    6       14.672667   0.000000
    7       14.672793   0.000000
    8       20.955545   0.000000
    9       27.494017   0.000000
   10       32.904579   0.000000
   11       34.795732   0.000000
   12       35.796306   0.000000
   13       35.796346   0.000000
   14       37.299531   0.000000
   15       43.037285   0.000000
   16       53.847417   0.000000
 
  0.4545455E-01  0.0000000E+00  0.4545455E-01  0.1666667E-02
    1      -11.596355   1.000000
    2        8.736569   1.000000
    3        8.736658   1.000000
    4        8.834946   1.000000
    5       14.331055   0.000000
    6       14.743078   0.000000
    7       14.743205   0.000000
    8       20.970198   0.000000
    9       27.521873   0.000000
   10       32.634922   0.000000
   11       34.815155   0.000000
   12       35.832112   0.000000
   13       35.832153   0.000000
   14       37.518970   0.000000
   15       43.181980   0.000000
   16       53.796347   0.000000
 
  0.5050505E-01  0.0000000E+00  0.5050505E-01  0.1666667E-02
    1      -11.579201   1.000000
    2        8.673930   1.000000
    3        8.674018   1.000000
    4        8.790966   1.000000
    5       14.316926   0.000000
    6       14.820049   0.000000
    7       14.820177   0.000000
    8       20.985782   0.000000
    9       27.552828   0.000000
   10       32.367048   0.000000
   11       34.836864   0.000000
   12       35.872114   0.000000
   13       35.872154   0.000000
   14       37.730164   0.000000
   15       43.344747   0.000000
   16       53.740290   0.000000
 
  0.5555556E-01  0.0000000E+00  0.5555556E-01  0.1666667E-02
    1      -11.560245   1.000000
    2        8.606657   1.000000
    3        8.606745   1.000000
    4        8.742679   1.000000
    5       14.301454   0.000000
    6       14.903148   0.000000
    7       14.903276   0.000000
    8       21.002032   0.000000
    9       27.586826   0.000000
   10       32.101713   0.000000
   11       34.860857   0.000000
   12       35.916302   0.000000
   13       35.916343   0.000000
   14       37.932574   0.000000
   15       43.525537   0.000000
   16       53.677562   0.000000
 
  0.6060606E-01  0.0000000E+00  0.6060606E-01  0.1666667E-02
    1      -11.539458   1.000000
    2        8.535183   1.000000
    3        8.535270   1.000000
    4        8.690243   1.000000
    5       14.284953   0.000000
    6       14.992212   0.000000
    7       14.992341   0.000000
    8       21.018822   0.000000
    9       27.624094   0.000000
   10       31.839582   0.000000
   11       34.887135   0.000000
   12       35.964675   0.000000
   13       35.964717   0.000000
   14       38.126205   0.000000
   15       43.724176   0.000000
   16       53.611330   0.000000
 
  0.6565657E-01  0.0000000E+00  0.6565657E-01  0.1666667E-02
    1      -11.516901   1.000000
    2        8.459893   1.000000
    3        8.459979   1.000000
    4        8.633600   1.000000
    5       14.266906   0.000000
    6       15.086293   0.000000
    7       15.086424   0.000000
    8       21.035514   0.000000
    9       27.664006   0.000000
   10       31.581237   0.000000
   11       34.915699   0.000000
   12       36.017216   0.000000
   13       36.017257   0.000000
   14       38.310523   0.000000
   15       43.940232   0.000000
   16       53.537211   0.000000
 
  0.7070707E-01  0.0000000E+00  0.7070707E-01  0.1666667E-02
    1      -11.492545   1.000000
    2        8.381190   1.000000
    3        8.381276   1.000000
    4        8.572925   1.000000
    5       14.247649   0.000000
    6       15.185265   0.000000
    7       15.185397   0.000000
    8       21.051913   0.000000
    9       27.706756   0.000000
   10       31.327243   0.000000
   11       34.946547   0.000000
   12       36.073917   0.000000
   13       36.073959   0.000000
   14       38.486009   0.000000
   15       44.173191   0.000000
   16       53.457920   0.000000
 
  0.7575758E-01  0.0000000E+00  0.7575758E-01  0.1666667E-02
    1      -11.466394   1.000000
    2        8.299445   1.000000
    3        8.299530   1.000000
    4        8.508315   1.000000
    5       14.227232   0.000000
    6       15.288749   0.000000
    7       15.288882   0.000000
    8       21.067645   0.000000
    9       27.752268   0.000000
   10       31.078132   0.000000
   11       34.979680   0.000000
   12       36.134768   0.000000
   13       36.134810   0.000000
   14       38.653066   0.000000
   15       44.422376   0.000000
   16       53.373031   0.000000
 
  0.8080808E-01  0.0000000E+00  0.8080808E-01  0.1666667E-02
    1      -11.438448   1.000000
    2        8.215006   1.000000
    3        8.215091   1.000000
    4        8.439871   1.000000
    5       14.205707   0.000000
    6       15.396392   0.000000
    7       15.396527   0.000000
    8       21.082310   0.000000
    9       27.800460   0.000000
   10       30.834425   0.000000
   11       35.015099   0.000000
   12       36.199756   0.000000
   13       36.199799   0.000000
   14       38.812247   0.000000
   15       44.686995   0.000000
   16       53.282402   0.000000
 
  0.8585859E-01  0.0000000E+00  0.8585859E-01  0.1666667E-02
    1      -11.408707   1.000000
    2        8.128198   1.000000
    3        8.128282   1.000000
    4        8.367697   1.000000
    5       14.183125   0.000000
    6       15.507863   0.000000
    7       15.507999   0.000000
    8       21.095480   0.000000
    9       27.851246   0.000000
   10       30.596634   0.000000
   11       35.052802   0.000000
   12       36.268868   0.000000
   13       36.268911   0.000000
   14       38.964213   0.000000
   15       44.966175   0.000000
   16       53.186901   0.000000
 
  0.9090909E-01  0.0000000E+00  0.9090909E-01  0.1666667E-02
    1      -11.377173   1.000000
    2        8.039323   1.000000
    3        8.039406   1.000000
    4        8.291894   1.000000
    5       14.159544   0.000000
    6       15.622850   0.000000
    7       15.622987   0.000000
    8       21.106705   0.000000
    9       27.904536   0.000000
   10       30.365269   0.000000
   11       35.092789   0.000000
   12       36.342088   0.000000
   13       36.342132   0.000000
   14       39.109700   0.000000
   15       45.258996   0.000000
   16       53.085654   0.000000
 
  0.9595960E-01  0.0000000E+00  0.9595960E-01  0.1666667E-02
    1      -11.343790   1.000000
    2        7.948684   1.000000
    3        7.948766   1.000000
    4        8.212594   1.000000
    5       14.135247   0.000000
    6       15.742058   0.000000
    7       15.742191   0.000000
    8       21.115787   0.000000
    9       27.960797   0.000000
   10       30.140867   0.000000
   11       35.135083   0.000000
   12       36.419524   0.000000
   13       36.419568   0.000000
   14       39.249514   0.000000
   15       45.564522   0.000000
   16       52.987440   0.000000
 
  0.1010101E+00  0.0000000E+00  0.1010101E+00  0.1666667E-02
    1      -11.308676   1.000000
    2        7.856490   1.000000
    3        7.856571   1.000000
    4        8.129844   1.000000
    5       14.109824   0.000000
    6       15.863240   0.000000
    7       15.863375   0.000000
    8       21.121694   0.000000
    9       28.018841   0.000000
   10       29.923892   0.000000
   11       35.179640   0.000000
   12       36.500908   0.000000
   13       36.500952   0.000000
   14       39.384362   0.000000
   15       45.881824   0.000000
   16       52.876104   0.000000
 
  0.1060606E+00  0.0000000E+00  0.1060606E+00  0.1666667E-02
    1      -11.271775   1.000000
    2        7.763005   1.000000
    3        7.763086   1.000000
    4        8.043777   1.000000
    5       14.083575   0.000000
    6       15.987138   0.000000
    7       15.987275   0.000000
    8       21.124184   0.000000
    9       28.079098   0.000000
   10       29.714877   0.000000
   11       35.226482   0.000000
   12       36.586344   0.000000
   13       36.586389   0.000000
   14       39.515041   0.000000
   15       46.210002   0.000000
   16       52.759818   0.000000
 
  0.1111111E+00  0.0000000E+00  0.1111111E+00  0.1666667E-02
    1      -11.233088   1.000000
    2        7.668448   1.000000
    3        7.668528   1.000000
    4        7.954494   1.000000
    5       14.056559   0.000000
    6       16.113526   0.000000
    7       16.113664   0.000000
    8       21.122740   0.000000
    9       28.141468   0.000000
   10       29.514327   0.000000
   11       35.275608   0.000000
   12       36.675812   0.000000
   13       36.675858   0.000000
   14       39.642282   0.000000
   15       46.548199   0.000000
   16       52.639057   0.000000
 
  0.1161616E+00  0.0000000E+00  0.1161616E+00  0.1666667E-02
    1      -11.192617   1.000000
    2        7.573021   1.000000
    3        7.573100   1.000000
    4        7.862095   1.000000
    5       14.028838   0.000000
    6       16.242192   0.000000
    7       16.242332   0.000000
    8       21.116844   0.000000
    9       28.205843   0.000000
   10       29.322743   0.000000
   11       35.327019   0.000000
   12       36.769286   0.000000
   13       36.769332   0.000000
   14       39.766773   0.000000
   15       46.895611   0.000000
   16       52.513659   0.000000
 
  0.1212121E+00  0.0000000E+00  0.1212121E+00  0.1666667E-02
    1      -11.150366   1.000000
    2        7.476908   1.000000
    3        7.476986   1.000000
    4        7.766679   1.000000
    5       14.000471   0.000000
    6       16.372944   0.000000
    7       16.373085   0.000000
    8       21.105981   0.000000
    9       28.272116   0.000000
   10       29.140611   0.000000
   11       35.380714   0.000000
   12       36.866738   0.000000
   13       36.866785   0.000000
   14       39.889151   0.000000
   15       47.251491   0.000000
   16       52.383354   0.000000
 
  0.1262626E+00  0.0000000E+00  0.1262626E+00  0.1666667E-02
    1      -11.106336   1.000000
    2        7.380279   1.000000
    3        7.380357   1.000000
    4        7.668344   1.000000
    5       13.971521   0.000000
    6       16.505601   0.000000
    7       16.505744   0.000000
    8       21.089650   0.000000
    9       28.340175   0.000000
   10       28.968395   0.000000
   11       35.436694   0.000000
   12       36.968139   0.000000
   13       36.968187   0.000000
   14       40.010004   0.000000
   15       47.615148   0.000000
   16       52.249143   0.000000
 
  0.1313131E+00  0.0000000E+00  0.1313131E+00  0.1666667E-02
    1      -11.060530   1.000000
    2        7.283290   1.000000
    3        7.283367   1.000000
    4        7.567184   1.000000
    5       13.942049   0.000000
    6       16.639997   0.000000
    7       16.640142   0.000000
    8       21.067377   0.000000
    9       28.409909   0.000000
   10       28.806526   0.000000
   11       35.494958   0.000000
   12       37.073457   0.000000
   13       37.073505   0.000000
   14       40.129867   0.000000
   15       47.985949   0.000000
   16       52.110688   0.000000
 
  0.1363636E+00  0.0000000E+00  0.1363636E+00  0.1666667E-02
    1      -11.012951   1.000000
    2        7.186082   1.000000
    3        7.186159   1.000000
    4        7.463289   1.000000
    5       13.912115   0.000000
    6       16.775982   0.000000
    7       16.776128   0.000000
    8       21.038725   0.000000
    9       28.481202   0.000000
   10       28.655397   0.000000
   11       35.555506   0.000000
   12       37.182654   0.000000
   13       37.182703   0.000000
   14       40.249227   0.000000
   15       48.363312   0.000000
   16       51.967865   0.000000
 
  0.1414141E+00  0.0000000E+00  0.1414141E+00  0.1666667E-02
    1      -10.963602   1.000000
    2        7.088788   1.000000
    3        7.088864   1.000000
    4        7.356749   1.000000
    5       13.881781   0.000000
    6       16.913410   0.000000
    7       16.913558   0.000000
    8       21.003305   0.000000
    9       28.515343   0.000000
   10       28.553939   0.000000
   11       35.618338   0.000000
   12       37.295691   0.000000
   13       37.295742   0.000000
   14       40.368520   0.000000
   15       48.746709   0.000000
   16       51.822237   0.000000
 
  0.1464646E+00  0.0000000E+00  0.1464646E+00  0.1666667E-02
    1      -10.912485   1.000000
    2        6.991528   1.000000
    3        6.991603   1.000000
    4        7.247649   1.000000
    5       13.851107   0.000000
    6       17.052148   0.000000
    7       17.052298   0.000000
    8       20.960790   0.000000
    9       28.386638   0.000000
   10       28.628001   0.000000
   11       35.683454   0.000000
   12       37.412525   0.000000
   13       37.412577   0.000000
   14       40.488143   0.000000
   15       49.135651   0.000000
   16       51.672100   0.000000
 
  0.1515152E+00  0.0000000E+00  0.1515152E+00  0.1666667E-02
    1      -10.859608   1.000000
    2        6.894414   1.000000
    3        6.894489   1.000000
    4        7.136072   1.000000
    5       13.820152   0.000000
    6       17.192073   0.000000
    7       17.192225   0.000000
    8       20.910926   0.000000
    9       28.269479   0.000000
   10       28.703268   0.000000
   11       35.750854   0.000000
   12       37.533107   0.000000
   13       37.533160   0.000000
   14       40.608451   0.000000
   15       49.529692   0.000000
   16       51.519302   0.000000
 
  0.1565657E+00  0.0000000E+00  0.1565657E+00  0.1666667E-02
    1      -10.804970   1.000000
    2        6.797548   1.000000
    3        6.797623   1.000000
    4        7.022099   1.000000
    5       13.788978   0.000000
    6       17.333070   0.000000
    7       17.333224   0.000000
    8       20.853539   0.000000
    9       28.163981   0.000000
   10       28.779620   0.000000
   11       35.820538   0.000000
   12       37.657384   0.000000
   13       37.657437   0.000000
   14       40.729764   0.000000
   15       49.928419   0.000000
   16       51.363025   0.000000
 
  0.1616162E+00  0.0000000E+00  0.1616162E+00  0.1666667E-02
    1      -10.748573   1.000000
    2        6.701027   1.000000
    3        6.701100   1.000000
    4        6.905808   1.000000
    5       13.757641   0.000000
    6       17.475031   0.000000
    7       17.475187   0.000000
    8       20.788544   0.000000
    9       28.070166   0.000000
   10       28.856933   0.000000
   11       35.892506   0.000000
   12       37.785296   0.000000
   13       37.785351   0.000000
   14       40.852371   0.000000
   15       50.331449   0.000000
   16       51.203901   0.000000
 
  0.1666667E+00  0.0000000E+00  0.1666667E+00  0.1666667E-02
    1      -10.690422   1.000000
    2        6.604936   1.000000
    3        6.605009   1.000000
    4        6.787275   1.000000
    5       13.726199   0.000000
    6       17.617854   0.000000
    7       17.618012   0.000000
    8       20.715951   0.000000
    9       27.987967   0.000000
   10       28.935085   0.000000
   11       35.966758   0.000000
   12       37.916779   0.000000
   13       37.916835   0.000000
   14       40.976530   0.000000
   15       50.738425   0.000000
   16       51.042215   0.000000
 
  0.1717172E+00  0.0000000E+00  0.1717172E+00  0.1666667E-02
    1      -10.630514   1.000000
    2        6.509358   1.000000
    3        6.509430   1.000000
    4        6.666571   1.000000
    5       13.695031   0.000000
    6       17.761537   0.000000
    7       17.761697   0.000000
    8       20.635858   0.000000
    9       27.917220   0.000000
   10       29.015726   0.000000
   11       36.043293   0.000000
   12       38.051860   0.000000
   13       38.051918   0.000000
   14       41.102475   0.000000
   15       50.878730   0.000000
   16       50.879213   0.000000
 
  0.1767677E+00  0.0000000E+00  0.1767677E+00  0.1666667E-02
    1      -10.568866   1.000000
    2        6.414368   1.000000
    3        6.414439   1.000000
    4        6.543767   1.000000
    5       13.663519   0.000000
    6       17.905801   0.000000
    7       17.905963   0.000000
    8       20.548453   0.000000
    9       27.857674   0.000000
   10       29.095231   0.000000
   11       36.122111   0.000000
   12       38.190260   0.000000
   13       38.190319   0.000000
   14       41.230417   0.000000
   15       50.712412   0.000000
   16       50.712882   0.000000
 
  0.1818182E+00  0.0000000E+00  0.1818182E+00  0.1666667E-02
    1      -10.505476   1.000000
    2        6.320035   1.000000
    3        6.320106   1.000000
    4        6.418931   1.000000
    5       13.632073   0.000000
    6       18.050655   0.000000
    7       18.050819   0.000000
    8       20.454007   0.000000
    9       27.808998   0.000000
   10       29.175197   0.000000
   11       36.203213   0.000000
   12       38.331988   0.000000
   13       38.332049   0.000000
   14       41.360547   0.000000
   15       50.544175   0.000000
   16       50.544632   0.000000
 
  0.1868687E+00  0.0000000E+00  0.1868687E+00  0.1666667E-02
    1      -10.440346   1.000000
    2        6.226426   1.000000
    3        6.226496   1.000000
    4        6.292126   1.000000
    5       13.600747   0.000000
    6       18.196020   0.000000
    7       18.196186   0.000000
    8       20.352860   0.000000
    9       27.770786   0.000000
   10       29.255497   0.000000
   11       36.286598   0.000000
   12       38.476945   0.000000
   13       38.477007   0.000000
   14       41.493037   0.000000
   15       50.374288   0.000000
   16       50.374732   0.000000
 
  0.1919192E+00  0.0000000E+00  0.1919192E+00  0.1666667E-02
    1      -10.373482   1.000000
    2        6.133600   1.000000
    3        6.133670   1.000000
    4        6.163417   1.000000
    5       13.569596   0.000000
    6       18.341816   0.000000
    7       18.341985   0.000000
    8       20.245413   0.000000
    9       27.742575   0.000000
   10       29.336005   0.000000
   11       36.372267   0.000000
   12       38.625016   0.000000
   13       38.625081   0.000000
   14       41.628043   0.000000
   15       50.203030   0.000000
   16       50.203460   0.000000
 
  0.1969697E+00  0.0000000E+00  0.1969697E+00  0.1666667E-02
    1      -10.304888   1.000000
    2        6.032863   1.000000
    3        6.041614   1.000000
    4        6.041684   1.000000
    5       13.538672   0.000000
    6       18.487971   0.000000
    7       18.488142   0.000000
    8       20.132116   0.000000
    9       27.723855   0.000000
   10       29.416594   0.000000
   11       36.460218   0.000000
   12       38.776078   0.000000
   13       38.776145   0.000000
   14       41.765709   0.000000
   15       50.030694   0.000000
   16       50.031111   0.000000
 
  0.2020202E+00  0.0000000E+00  0.2020202E+00  0.1666667E-02
    1      -10.234568   1.000000
    2        5.900526   1.000000
    3        5.950521   1.000000
    4        5.950590   1.000000
    5       13.508025   0.000000
    6       18.634413   0.000000
    7       18.634585   0.000000
    8       20.013450   0.000000
    9       27.714080   0.000000
   10       29.497139   0.000000
   11       36.550452   0.000000
   12       38.929988   0.000000
   13       38.930057   0.000000
   14       41.906162   0.000000
   15       49.857588   0.000000
   16       49.857992   0.000000
 
  0.2070707E+00  0.0000000E+00  0.2070707E+00  0.1666667E-02
    1      -10.162527   1.000000
    2        5.766461   1.000000
    3        5.860371   1.000000
    4        5.860439   1.000000
    5       13.477705   0.000000
    6       18.781072   0.000000
    7       18.781247   0.000000
    8       19.889920   0.000000
    9       27.712687   0.000000
   10       29.577512   0.000000
   11       36.642969   0.000000
   12       39.086587   0.000000
   13       39.086658   0.000000
   14       42.049521   0.000000
   15       49.684036   0.000000
   16       49.684427   0.000000
 
  0.2121212E+00  0.0000000E+00  0.2121212E+00  0.1666667E-02
    1      -10.088771   1.000000
    2        5.630723   1.000000
    3        5.771208   1.000000
    4        5.771276   1.000000
    5       13.447762   0.000000
    6       18.927882   0.000000
    7       18.928059   0.000000
    8       19.762037   0.000000
    9       27.719102   0.000000
   10       29.657588   0.000000
   11       36.737768   0.000000
   12       39.245691   0.000000
   13       39.245765   0.000000
   14       42.195892   0.000000
   15       49.510382   0.000000
   16       49.510760   0.000000
 
  0.2171717E+00  0.0000000E+00  0.2171717E+00  0.1666667E-02
    1      -10.013305   1.000000
    2        5.493367   1.000000
    3        5.683077   1.000000
    4        5.683145   1.000000
    5       13.418244   0.000000
    6       19.074777   0.000000
    7       19.074957   0.000000
    8       19.630316   0.000000
    9       27.732754   0.000000
   10       29.737242   0.000000
   11       36.834850   0.000000
   12       39.407096   0.000000
   13       39.407172   0.000000
   14       42.345373   0.000000
   15       49.336995   0.000000
   16       49.337359   0.000000
 
  0.2222222E+00  0.0000000E+00  0.2222222E+00  0.1666667E-02
    1       -9.936135   1.000000
    2        5.354444   1.000000
    3        5.596019   1.000000
    4        5.596085   1.000000
    5       13.389196   0.000000
    6       19.221694   0.000000
    7       19.221876   0.000000
    8       19.495261   0.000000
    9       27.753078   0.000000
   10       29.816350   0.000000
   11       36.934215   0.000000
   12       39.570565   0.000000
   13       39.570644   0.000000
   14       42.498053   0.000000
   15       49.164268   0.000000
   16       49.164619   0.000000
 
  0.2272727E+00  0.0000000E+00  0.2272727E+00  0.1666667E-02
    1       -9.857267   1.000000
    2        5.214006   1.000000
    3        5.510071   1.000000
    4        5.510137   1.000000
    5       13.360666   0.000000
    6       19.357362   0.000000
    7       19.368571   0.000000
    8       19.368755   0.000000
    9       27.779529   0.000000
   10       29.894788   0.000000
   11       37.035861   0.000000
   12       39.735827   0.000000
   13       39.735910   0.000000
   14       42.654011   0.000000
   15       48.992628   0.000000
   16       48.992966   0.000000
 
  0.2323232E+00  0.0000000E+00  0.2323232E+00  0.1666667E-02
    1       -9.776706   1.000000
    2        5.072104   1.000000
    3        5.425268   1.000000
    4        5.425334   1.000000
    5       13.332698   0.000000
    6       19.217088   0.000000
    7       19.515344   0.000000
    8       19.515531   0.000000
    9       27.811579   0.000000
   10       29.972436   0.000000
   11       37.139789   0.000000
   12       39.902572   0.000000
   13       39.902658   0.000000
   14       42.813323   0.000000
   15       48.822540   0.000000
   16       48.822864   0.000000
 
  0.2373737E+00  0.0000000E+00  0.2373737E+00  0.1666667E-02
    1       -9.694456   1.000000
    2        4.928786   1.000000
    3        5.341647   1.000000
    4        5.341712   1.000000
    5       13.305336   0.000000
    6       19.074884   0.000000
    7       19.661955   0.000000
    8       19.662144   0.000000
    9       27.848730   0.000000
   10       30.049172   0.000000
   11       37.246000   0.000000
   12       40.070441   0.000000
   13       40.070531   0.000000
   14       42.976053   0.000000
   15       48.654514   0.000000
   16       48.654825   0.000000
 
  0.2424242E+00  0.0000000E+00  0.2424242E+00  0.1666667E-02
    1       -9.610524   1.000000
    2        4.784102   1.000000
    3        5.259237   1.000000
    4        5.259301   1.000000
    5       13.278622   0.000000
    6       18.931170   0.000000
    7       19.808341   0.000000
    8       19.808533   0.000000
    9       27.890508   0.000000
   10       30.124879   0.000000
   11       37.354492   0.000000
   12       40.239018   0.000000
   13       40.239112   0.000000
   14       43.142263   0.000000
   15       48.489115   0.000000
   16       48.489412   0.000000
 
  0.2474747E+00  0.0000000E+00  0.2474747E+00  0.1666667E-02
    1       -9.524917   1.000000
    2        4.638098   1.000000
    3        5.178069   1.000000
    4        5.178133   1.000000
    5       13.252598   0.000000
    6       18.786338   0.000000
    7       19.954442   0.000000
    8       19.954636   0.000000
    9       27.936466   0.000000
   10       30.199439   0.000000
   11       37.465266   0.000000
   12       40.407820   0.000000
   13       40.407918   0.000000
   14       43.312005   0.000000
   15       48.326972   0.000000
   16       48.327256   0.000000
 
  0.2525253E+00  0.0000000E+00  0.2525253E+00  0.1666667E-02
    1       -9.437642   1.000000
    2        4.490820   1.000000
    3        5.098172   1.000000
    4        5.098235   1.000000
    5       13.227303   0.000000