FCC Silicon                             
           1
     1.822650    1.822650    0.000000
     0.000000    1.822650    1.822650
     1.822650    0.000000    1.822650
   C 
   2
Direct configuration=     1
   0.00000000  0.00000000  0.00000000
   0.25000000  0.25000000  0.25000000
