Real silicon                            
   5.50000000000000     
     0.000000    0.497144    0.497144
     0.497144    0.000000    0.497144
     0.497144    0.497144    0.000000
   Si
     2
Direct
  0.875000  0.875000  0.875000
  0.125000  0.125000  0.125000
 
   48   48   48
  24.148      24.087      23.901      23.581      23.110      22.433      21.507      20.344      19.021      17.682    
  16.520      15.726      15.444      15.726      16.520      17.682      19.021      20.344      21.507      22.433    
  23.110      23.581      23.901      24.087      24.148      24.087      23.901      23.581      23.110      22.433    
  21.507      20.344      19.021      17.682      16.520      15.726      15.444      15.726      16.520      17.682    
  19.021      20.344      21.507      22.433      23.110      23.581      23.901      24.087      24.087      24.146    
  24.063      23.804      23.288      22.446      21.258      19.783      18.168      16.629      15.416      14.745    
  14.745      15.416      16.629      18.168      19.783      21.258      22.446      23.288      23.804      24.063    
  24.146      24.087      23.900      23.597      23.182      22.656      22.012      21.226      20.279      19.200    
  18.073      17.027      16.215      15.770      15.770      16.215      17.027      18.073      19.200      20.279    
  21.226      22.012      22.656      23.182      23.597      23.900      23.901      24.063      24.041      23.732    
  23.036      21.898      20.346      18.508      16.611      14.943      13.797      13.388      13.797      14.943    
  16.611      18.508      20.346      21.898      23.036      23.732      24.041      24.063      23.901      23.597    
  23.176      22.654      22.044      21.354      20.587      19.745      18.828      17.873      16.957      16.185    
  15.667      15.485      15.667      16.185      16.957      17.873      18.828      19.745      20.587      21.354    
  22.044      22.654      23.176      23.597      23.581      23.804      23.732      23.237      22.228      20.693    
  18.725      16.536      14.436      12.773      11.852      11.852      12.773      14.436      16.536      18.725    
  20.693      22.228      23.237      23.732      23.804      23.581      23.182      22.654      22.026      21.323    
  20.565      19.764      18.931      18.079      17.227      16.412      15.697      15.159      14.870      14.870    
  15.159      15.697      16.412      17.227      18.079      18.931      19.764      20.565      21.323      22.026    
  22.654      23.182      23.110      23.288      23.036      22.228      20.810      18.831      16.466      14.018    
  11.864      10.384      9.8560      10.384      11.864      14.018      16.466      18.831      20.810      22.228    
  23.036      23.288      23.110      22.656      22.044      21.323      20.530      19.694      18.840      17.983    
  17.136      16.316      15.550      14.873      14.334      13.983      13.861      13.983      14.334      14.873    
  15.550      16.316      17.136      17.983      18.840      19.694      20.530      21.323      22.044      22.656    
  22.433      22.446      21.898      20.693      18.831      16.439      13.783      11.241      9.2322      8.1216    
  8.1216      9.2322      11.241      13.783      16.439      18.831      20.693      21.898      22.446      22.433    
  22.012      21.354      20.565      19.694      18.784      17.867      16.969      16.105      15.289      14.536    
  13.870      13.322      12.929      12.722      12.722      12.929      13.322      13.870      14.536      15.289    
  16.105      16.969      17.867      18.784      19.694      20.565      21.354      22.012      21.507      21.258    
  20.346      18.725      16.466      13.783      11.019      8.5996      6.9415      6.3513      6.9415      8.5996    
  11.019      13.783      16.466      18.725      20.346      21.258      21.507      21.226      20.587      19.764    
  18.840      17.867      16.890      15.941      15.045      14.215      13.462      12.797      12.240      11.815    
  11.547      11.455      11.547      11.815      12.240      12.797      13.462      14.215      15.045      15.941    
  16.890      17.867      18.840      19.764      20.587      21.226      20.344      19.783      18.508      16.536    
  14.018      11.241      8.5996      6.5232      5.3788      5.3788      6.5232      8.5996      11.241      14.018    
  16.536      18.508      19.783      20.344      20.279      19.745      18.931      17.983      16.969      15.941    
  14.944      14.008      13.152      12.384      11.712      11.145      10.696      10.382      10.221      10.221    
  10.382      10.696      11.145      11.712      12.384      13.152      14.008      14.944      15.941      16.969    
  17.983      18.931      19.745      20.279      19.021      18.168      16.611      14.436      11.864      9.2322    
  6.9415      5.3788      4.8237      5.3788      6.9415      9.2322      11.864      14.436      16.611      18.168    
  19.021      19.200      18.828      18.079      17.136      16.105      15.045      14.008      13.033      12.144    
  11.354      10.666      10.085      9.6150      9.2666      9.0512      8.9781      9.0512      9.2666      9.6150    
  10.085      10.666      11.354      12.144      13.033      14.008      15.045      16.105      17.136      18.079    
  18.828      19.200      17.682      16.629      14.943      12.773      10.384      8.1216      6.3513      5.3788    
  5.3788      6.3513      8.1216      10.384      12.773      14.943      16.629      17.682      18.073      17.873    
  17.227      16.316      15.289      14.215      13.152      12.144      11.224      10.407      9.6986      9.0993    
  8.6093      8.2321      7.9743      7.8430      7.8430      7.9743      8.2321      8.6093      9.0993      9.6986    
  10.407      11.224      12.144      13.152      14.215      15.289      16.316      17.227      17.873      18.073    
  16.520      15.416      13.797      11.852      9.8560      8.1216      6.9415      6.5232      6.9415      8.1216    
  9.8560      11.852      13.797      15.416      16.520      17.027      16.957      16.412      15.550      14.536    
  13.462      12.384      11.354      10.407      9.5642      8.8335      8.2145      7.7046      7.3026      7.0104    
  6.8324      6.7725      6.8324      7.0104      7.3026      7.7046      8.2145      8.8335      9.5642      10.407    
  11.354      12.384      13.462      14.536      15.550      16.412      16.957      17.027      15.726      14.745    
  13.388      11.852      10.384      9.2322      8.5996      8.5996      9.2322      10.384      11.852      13.388    
  14.745      15.726      16.215      16.185      15.697      14.873      13.870      12.797      11.712      10.666    
  9.6986      8.8335      8.0814      7.4429      6.9138      6.4899      6.1695      5.9536      5.8447      5.8447    
  5.9536      6.1695      6.4899      6.9138      7.4429      8.0814      8.8335      9.6986      10.666      11.712    
  12.797      13.870      14.873      15.697      16.185      16.215      15.444      14.745      13.797      12.773    
  11.864      11.241      11.019      11.241      11.864      12.773      13.797      14.745      15.444      15.770    
  15.667      15.159      14.334      13.322      12.240      11.145      10.085      9.0993      8.2145      7.4429    
  6.7859      6.2388      5.7956      5.4515      5.2048      5.0560      5.0062      5.0560      5.2048      5.4515    
  5.7956      6.2388      6.7859      7.4429      8.2145      9.0993      10.085      11.145      12.240      13.322    
  14.334      15.159      15.667      15.770      15.726      15.416      14.943      14.436      14.018      13.783    
  13.783      14.018      14.436      14.943      15.416      15.726      15.770      15.485      14.870      13.983    
  12.929      11.815      10.696      9.6150      8.6093      7.7046      6.9138      6.2388      5.6747      5.2138    
  4.8494      4.5775      4.3961      4.3053      4.3053      4.3961      4.5775      4.8494      5.2138      5.6747    
  6.2388      6.9138      7.7046      8.6093      9.6150      10.696      11.815      12.929      13.983      14.870    
  15.485      15.770      16.520      16.629      16.611      16.536      16.466      16.439      16.466      16.536    
  16.611      16.629      16.520      16.215      15.667      14.870      13.861      12.722      11.547      10.382    
  9.2666      8.2321      7.3026      6.4899      5.7956      5.2138      4.7358      4.3532      4.0598      3.8516    
  3.7270      3.6856      3.7270      3.8516      4.0598      4.3532      4.7358      5.2138      5.7956      6.4899    
  7.3026      8.2321      9.2666      10.382      11.547      12.722      13.861      14.870      15.667      16.215    
  17.682      18.168      18.508      18.725      18.831      18.831      18.725      18.508      18.168      17.682    
  17.027      16.185      15.159      13.983      12.722      11.455      10.221      9.0512      7.9743      7.0104    
  6.1695      5.4515      4.8494      4.3532      3.9528      3.6398      3.4087      3.2561      3.1801      3.1801    
  3.2561      3.4087      3.6398      3.9528      4.3532      4.8494      5.4515      6.1695      7.0104      7.9743    
  9.0512      10.221      11.455      12.722      13.983      15.159      16.185      17.027      19.021      19.783    
  20.346      20.693      20.810      20.693      20.346      19.783      19.021      18.073      16.957      15.697    
  14.334      12.929      11.547      10.221      8.9781      7.8430      6.8324      5.9536      5.2048      4.5775    
  4.0598      3.6398      3.3076      3.0556      2.8787      2.7738      2.7390      2.7738      2.8787      3.0556    
  3.3076      3.6398      4.0598      4.5775      5.2048      5.9536      6.8324      7.8430      8.9781      10.221    
  11.547      12.929      14.334      15.697      16.957      18.073      20.344      21.258      21.898      22.228    
  22.228      21.898      21.258      20.344      19.200      17.873      16.412      14.873      13.322      11.815    
  10.382      9.0512      7.8430      6.7725      5.8447      5.0560      4.3961      3.8516      3.4087      3.0556    
  2.7829      2.5839      2.4538      2.3895      2.3895      2.4538      2.5839      2.7829      3.0556      3.4087    
  3.8516      4.3961      5.0560      5.8447      6.7725      7.8430      9.0512      10.382      11.815      13.322    
  14.873      16.412      17.873      19.200      21.507      22.446      23.036      23.237      23.036      22.446    
  21.507      20.279      18.828      17.227      15.550      13.870      12.240      10.696      9.2666      7.9743    
  6.8324      5.8447      5.0062      4.3053      3.7270      3.2561      2.8787      2.5839      2.3631      2.2099    
  2.1198      2.0901      2.1198      2.2099      2.3631      2.5839      2.8787      3.2561      3.7270      4.3053    
  5.0062      5.8447      6.8324      7.9743      9.2666      10.696      12.240      13.870      15.550      17.227    
  18.828      20.279      22.433      23.288      23.732      23.732      23.288      22.433      21.226      19.745    
  18.079      16.316      14.536      12.797      11.145      9.6150      8.2321      7.0104      5.9536      5.0560    
  4.3053      3.6856      3.1801      2.7738      2.4538      2.2099      2.0341      1.9205      1.8648      1.8648    
  1.9205      2.0341      2.2099      2.4538      2.7738      3.1801      3.6856      4.3053      5.0560      5.9536    
  7.0104      8.2321      9.6150      11.145      12.797      14.536      16.316      18.079      19.745      21.226    
  23.110      23.804      24.041      23.804      23.110      22.012      20.587      18.931      17.136      15.289    
  13.462      11.712      10.085      8.6093      7.3026      6.1695      5.2048      4.3961      3.7270      3.1801    
  2.7390      2.3895      2.1198      1.9205      1.7839      1.7043      1.6782      1.7043      1.7839      1.9205    
  2.1198      2.3895      2.7390      3.1801      3.7270      4.3961      5.2048      6.1695      7.3026      8.6093    
  10.085      11.712      13.462      15.289      17.136      18.931      20.587      22.012      23.581      24.063    
  24.063      23.581      22.656      21.354      19.764      17.983      16.105      14.215      12.384      10.666    
  9.0993      7.7046      6.4899      5.4515      4.5775      3.8516      3.2561      2.7738      2.3895      2.0901    
  1.8648      1.7043      1.6017      1.5517      1.5517      1.6017      1.7043      1.8648      2.0901      2.3895    
  2.7738      3.2561      3.8516      4.5775      5.4515      6.4899      7.7046      9.0993      10.666      12.384    
  14.215      16.105      17.983      19.764      21.354      22.656      23.901      24.146      23.901      23.182    
  22.044      20.565      18.840      16.969      15.045      13.152      11.354      9.6986      8.2145      6.9138    
  5.7956      4.8494      4.0598      3.4087      2.8787      2.4538      2.1198      1.8648      1.6782      1.5517    
  1.4785      1.4546      1.4785      1.5517      1.6782      1.8648      2.1198      2.4538      2.8787      3.4087    
  4.0598      4.8494      5.7956      6.9138      8.2145      9.6986      11.354      13.152      15.045      16.969    
  18.840      20.565      22.044      23.182      24.087      24.087      23.597      22.654      21.323      19.694    
  17.867      15.941      14.008      12.144      10.407      8.8335      7.4429      6.2388      5.2138      4.3532    
  3.6398      3.0556      2.5839      2.2099      1.9205      1.7043      1.5517      1.4546      1.4076      1.4076    
  1.4546      1.5517      1.7043      1.9205      2.2099      2.5839      3.0556      3.6398      4.3532      5.2138    
  6.2388      7.4429      8.8335      10.407      12.144      14.008      15.941      17.867      19.694      21.323    
  22.654      23.597      24.148      23.900      23.176      22.026      20.530      18.784      16.890      14.944    
  13.033      11.224      9.5642      8.0814      6.7859      5.6747      4.7358      3.9528      3.3076      2.7829    
  2.3631      2.0341      1.7839      1.6017      1.4785      1.4076      1.3844      1.4076      1.4785      1.6017    
  1.7839      2.0341      2.3631      2.7829      3.3076      3.9528      4.7358      5.6747      6.7859      8.0814    
  9.5642      11.224      13.033      14.944      16.890      18.784      20.530      22.026      23.176      23.900    
  24.087      23.597      22.654      21.323      19.694      17.867      15.941      14.008      12.144      10.407    
  8.8335      7.4429      6.2388      5.2138      4.3532      3.6398      3.0556      2.5839      2.2099      1.9205    
  1.7043      1.5517      1.4546      1.4076      1.4076      1.4546      1.5517      1.7043      1.9205      2.2099    
  2.5839      3.0556      3.6398      4.3532      5.2138      6.2388      7.4429      8.8335      10.407      12.144    
  14.008      15.941      17.867      19.694      21.323      22.654      23.597      24.087      23.901      23.182    
  22.044      20.565      18.840      16.969      15.045      13.152      11.354      9.6986      8.2145      6.9138    
  5.7956      4.8494      4.0598      3.4087      2.8787      2.4538      2.1198      1.8648      1.6782      1.5517    
  1.4785      1.4546      1.4785      1.5517      1.6782      1.8648      2.1198      2.4538      2.8787      3.4087    
  4.0598      4.8494      5.7956      6.9138      8.2145      9.6986      11.354      13.152      15.045      16.969    
  18.840      20.565      22.044      23.182      23.901      24.146      23.581      22.656      21.354      19.764    
  17.983      16.105      14.215      12.384      10.666      9.0993      7.7046      6.4899      5.4515      4.5775    
  3.8516      3.2561      2.7738      2.3895      2.0901      1.8648      1.7043      1.6017      1.5517      1.5517    
  1.6017      1.7043      1.8648      2.0901      2.3895      2.7738      3.2561      3.8516      4.5775      5.4515    
  6.4899      7.7046      9.0993      10.666      12.384      14.215      16.105      17.983      19.764      21.354    
  22.656      23.581      24.063      24.063      23.110      22.012      20.587      18.931      17.136      15.289    
  13.462      11.712      10.085      8.6093      7.3026      6.1695      5.2048      4.3961      3.7270      3.1801    
  2.7390      2.3895      2.1198      1.9205      1.7839      1.7043      1.6782      1.7043      1.7839      1.9205    
  2.1198      2.3895      2.7390      3.1801      3.7270      4.3961      5.2048      6.1695      7.3026      8.6093    
  10.085      11.712      13.462      15.289      17.136      18.931      20.587      22.012      23.110      23.804    
  24.041      23.804      22.433      21.226      19.745      18.079      16.316      14.536      12.797      11.145    
  9.6150      8.2321      7.0104      5.9536      5.0560      4.3053      3.6856      3.1801      2.7738      2.4538    
  2.2099      2.0341      1.9205      1.8648      1.8648      1.9205      2.0341      2.2099      2.4538      2.7738    
  3.1801      3.6856      4.3053      5.0560      5.9536      7.0104      8.2321      9.6150      11.145      12.797    
  14.536      16.316      18.079      19.745      21.226      22.433      23.288      23.732      23.732      23.288    
  21.507      20.279      18.828      17.227      15.550      13.870      12.240      10.696      9.2666      7.9743    
  6.8324      5.8447      5.0062      4.3053      3.7270      3.2561      2.8787      2.5839      2.3631      2.2099    
  2.1198      2.0901      2.1198      2.2099      2.3631      2.5839      2.8787      3.2561      3.7270      4.3053    
  5.0062      5.8447      6.8324      7.9743      9.2666      10.696      12.240      13.870      15.550      17.227    
  18.828      20.279      21.507      22.446      23.036      23.237      23.036      22.446      20.344      19.200    
  17.873      16.412      14.873      13.322      11.815      10.382      9.0512      7.8430      6.7725      5.8447    
  5.0560      4.3961      3.8516      3.4087      3.0556      2.7829      2.5839      2.4538      2.3895      2.3895    
  2.4538      2.5839      2.7829      3.0556      3.4087      3.8516      4.3961      5.0560      5.8447      6.7725    
  7.8430      9.0512      10.382      11.815      13.322      14.873      16.412      17.873      19.200      20.344    
  21.258      21.898      22.228      22.228      21.898      21.258      19.021      18.073      16.957      15.697    
  14.334      12.929      11.547      10.221      8.9781      7.8430      6.8324      5.9536      5.2048      4.5775    
  4.0598      3.6398      3.3076      3.0556      2.8787      2.7738      2.7390      2.7738      2.8787      3.0556    
  3.3076      3.6398      4.0598      4.5775      5.2048      5.9536      6.8324      7.8430      8.9781      10.221    
  11.547      12.929      14.334      15.697      16.957      18.073      19.021      19.783      20.346      20.693    
  20.810      20.693      20.346      19.783      17.682      17.027      16.185      15.159      13.983      12.722    
  11.455      10.221      9.0512      7.9743      7.0104      6.1695      5.4515      4.8494      4.3532      3.9528    
  3.6398      3.4087      3.2561      3.1801      3.1801      3.2561      3.4087      3.6398      3.9528      4.3532    
  4.8494      5.4515      6.1695      7.0104      7.9743      9.0512      10.221      11.455      12.722      13.983    
  15.159      16.185      17.027      17.682      18.168      18.508      18.725      18.831      18.831      18.725    
  18.508      18.168      16.520      16.215      15.667      14.870      13.861      12.722      11.547      10.382    
  9.2666      8.2321      7.3026      6.4899      5.7956      5.2138      4.7358      4.3532      4.0598      3.8516    
  3.7270      3.6856      3.7270      3.8516      4.0598      4.3532      4.7358      5.2138      5.7956      6.4899    
  7.3026      8.2321      9.2666      10.382      11.547      12.722      13.861      14.870      15.667      16.215    
  16.520      16.629      16.611      16.536      16.466      16.439      16.466      16.536      16.611      16.629    
  15.726      15.770      15.485      14.870      13.983      12.929      11.815      10.696      9.6150      8.6093    
  7.7046      6.9138      6.2388      5.6747      5.2138      4.8494      4.5775      4.3961      4.3053      4.3053    
  4.3961      4.5775      4.8494      5.2138      5.6747      6.2388      6.9138      7.7046      8.6093      9.6150    
  10.696      11.815      12.929      13.983      14.870      15.485      15.770      15.726      15.416      14.943    
  14.436      14.018      13.783      13.783      14.018      14.436      14.943      15.416      15.444      15.770    
  15.667      15.159      14.334      13.322      12.240      11.145      10.085      9.0993      8.2145      7.4429    
  6.7859      6.2388      5.7956      5.4515      5.2048      5.0560      5.0062      5.0560      5.2048      5.4515    
  5.7956      6.2388      6.7859      7.4429      8.2145      9.0993      10.085      11.145      12.240      13.322    
  14.334      15.159      15.667      15.770      15.444      14.745      13.797      12.773      11.864      11.241    
  11.019      11.241      11.864      12.773      13.797      14.745      15.726      16.215      16.185      15.697    
  14.873      13.870      12.797      11.712      10.666      9.6986      8.8335      8.0814      7.4429      6.9138    
  6.4899      6.1695      5.9536      5.8447      5.8447      5.9536      6.1695      6.4899      6.9138      7.4429    
  8.0814      8.8335      9.6986      10.666      11.712      12.797      13.870      14.873      15.697      16.185    
  16.215      15.726      14.745      13.388      11.852      10.384      9.2322      8.5996      8.5996      9.2322    
  10.384      11.852      13.388      14.745      16.520      17.027      16.957      16.412      15.550      14.536    
  13.462      12.384      11.354      10.407      9.5642      8.8335      8.2145      7.7046      7.3026      7.0104    
  6.8324      6.7725      6.8324      7.0104      7.3026      7.7046      8.2145      8.8335      9.5642      10.407    
  11.354      12.384      13.462      14.536      15.550      16.412      16.957      17.027      16.520      15.416    
  13.797      11.852      9.8560      8.1216      6.9415      6.5232      6.9415      8.1216      9.8560      11.852    
  13.797      15.416      17.682      18.073      17.873      17.227      16.316      15.289      14.215      13.152    
  12.144      11.224      10.407      9.6986      9.0993      8.6093      8.2321      7.9743      7.8430      7.8430    
  7.9743      8.2321      8.6093      9.0993      9.6986      10.407      11.224      12.144      13.152      14.215    
  15.289      16.316      17.227      17.873      18.073      17.682      16.629      14.943      12.773      10.384    
  8.1216      6.3513      5.3788      5.3788      6.3513      8.1216      10.384      12.773      14.943      16.629    
  19.021      19.200      18.828      18.079      17.136      16.105      15.045      14.008      13.033      12.144    
  11.354      10.666      10.085      9.6150      9.2666      9.0512      8.9781      9.0512      9.2666      9.6150    
  10.085      10.666      11.354      12.144      13.033      14.008      15.045      16.105      17.136      18.079    
  18.828      19.200      19.021      18.168      16.611      14.436      11.864      9.2322      6.9415      5.3788    
  4.8237      5.3788      6.9415      9.2322      11.864      14.436      16.611      18.168      20.344      20.279    
  19.745      18.931      17.983      16.969      15.941      14.944      14.008      13.152      12.384      11.712    
  11.145      10.696      10.382      10.221      10.221      10.382      10.696      11.145      11.712      12.384    
  13.152      14.008      14.944      15.941      16.969      17.983      18.931      19.745      20.279      20.344    
  19.783      18.508      16.536      14.018      11.241      8.5996      6.5232      5.3788      5.3788      6.5232    
  8.5996      11.241      14.018      16.536      18.508      19.783      21.507      21.226      20.587      19.764    
  18.840      17.867      16.890      15.941      15.045      14.215      13.462      12.797      12.240      11.815    
  11.547      11.455      11.547      11.815      12.240      12.797      13.462      14.215      15.045      15.941    
  16.890      17.867      18.840      19.764      20.587      21.226      21.507      21.258      20.346      18.725    
  16.466      13.783      11.019      8.5996      6.9415      6.3513      6.9415      8.5996      11.019      13.783    
  16.466      18.725      20.346      21.258      22.433      22.012      21.354      20.565      19.694      18.784    
  17.867      16.969      16.105      15.289      14.536      13.870      13.322      12.929      12.722      12.722    
  12.929      13.322      13.870      14.536      15.289      16.105      16.969      17.867      18.784      19.694    
  20.565      21.354      22.012      22.433      22.446      21.898      20.693      18.831      16.439      13.783    
  11.241      9.2322      8.1216      8.1216      9.2322      11.241      13.783      16.439      18.831      20.693    
  21.898      22.446      23.110      22.656      22.044      21.323      20.530      19.694      18.840      17.983    
  17.136      16.316      15.550      14.873      14.334      13.983      13.861      13.983      14.334      14.873    
  15.550      16.316      17.136      17.983      18.840      19.694      20.530      21.323      22.044      22.656    
  23.110      23.288      23.036      22.228      20.810      18.831      16.466      14.018      11.864      10.384    
  9.8560      10.384      11.864      14.018      16.466      18.831      20.810      22.228      23.036      23.288    
  23.581      23.182      22.654      22.026      21.323      20.565      19.764      18.931      18.079      17.227    
  16.412      15.697      15.159      14.870      14.870      15.159      15.697      16.412      17.227      18.079    
  18.931      19.764      20.565      21.323      22.026      22.654      23.182      23.581      23.804      23.732    
  23.237      22.228      20.693      18.725      16.536      14.436      12.773      11.852      11.852      12.773    
  14.436      16.536      18.725      20.693      22.228      23.237      23.732      23.804      23.901      23.597    
  23.176      22.654      22.044      21.354      20.587      19.745      18.828      17.873      16.957      16.185    
  15.667      15.485      15.667      16.185      16.957      17.873      18.828      19.745      20.587      21.354    
  22.044      22.654      23.176      23.597      23.901      24.063      24.041      23.732      23.036      21.898    
  20.346      18.508      16.611      14.943      13.797      13.388      13.797      14.943      16.611      18.508    
  20.346      21.898      23.036      23.732      24.041      24.063      24.087      23.900      23.597      23.182    
  22.656      22.012      21.226      20.279      19.200      18.073      17.027      16.215      15.770      15.770    
  16.215      17.027      18.073      19.200      20.279      21.226      22.012      22.656      23.182      23.597    
  23.900      24.087      24.146      24.063      23.804      23.288      22.446      21.258      19.783      18.168    
  16.629      15.416      14.745      14.745      15.416      16.629      18.168      19.783      21.258      22.446    
  23.288      23.804      24.063      24.146      24.087      24.146      24.063      23.804      23.288      22.446    
  21.258      19.783      18.168      16.629      15.416      14.745      14.745      15.416      16.629      18.168    
  19.783      21.258      22.446      23.288      23.804      24.063      24.146      24.087      23.900      23.597    
  23.182      22.656      22.012      21.226      20.279      19.200      18.073      17.027      16.215      15.770    
  15.770      16.215      17.027      18.073      19.200      20.279      21.226      22.012      22.656      23.182    
  23.597      23.900      24.146      24.310      24.285      23.967      23.251      22.086      20.498      18.617    
  16.675      14.968      13.795      13.376      13.795      14.968      16.675      18.617      20.498      22.086    
  23.251      23.967      24.285      24.310      24.146      23.840      23.414      22.886      22.269      21.570    
  20.793      19.938      19.005      18.032      17.098      16.311      15.782      15.596      15.782      16.311    
  17.098      18.032      19.005      19.938      20.793      21.570      22.269      22.886      23.414      23.840    
  24.063      24.285      24.199      23.670      22.606      20.993      18.930      16.635      14.434      12.690    
  11.724      11.724      12.690      14.434      16.635      18.930      20.993      22.606      23.670      24.199    
  24.285      24.063      23.656      23.118      22.477      21.759      20.982      20.160      19.305      18.429    
  17.550      16.707      15.967      15.409      15.108      15.108      15.409      15.967      16.707      17.550    
  18.429      19.305      20.160      20.982      21.759      22.477      23.118      23.656      23.804      23.967    