Real silicon                            
   5.50000000000000     
     0.000000    0.497144    0.497144
     0.497144    0.000000    0.497144
     0.497144    0.497144    0.000000
   Si
     2
Direct
  0.875000  0.875000  0.875000
  0.125000  0.125000  0.125000
 
   48   48   48
 0.24148105247E+02 0.24086838745E+02 0.23900553604E+02 0.23581423030E+02 0.23110119142E+02
 0.22432592501E+02 0.21507313296E+02 0.20344023654E+02 0.19020536587E+02 0.17682452083E+02
 0.16520245772E+02 0.15726304805E+02 0.15443971824E+02 0.15726304659E+02 0.16520245705E+02
 0.17682452247E+02 0.19020536882E+02 0.20344023892E+02 0.21507313413E+02 0.22432592539E+02
 0.23110119123E+02 0.23581422961E+02 0.23900553553E+02 0.24086838783E+02 0.24148105342E+02
 0.24086838783E+02 0.23900553553E+02 0.23581422961E+02 0.23110119123E+02 0.22432592539E+02
 0.21507313413E+02 0.20344023892E+02 0.19020536882E+02 0.17682452247E+02 0.16520245705E+02
 0.15726304659E+02 0.15443971824E+02 0.15726304805E+02 0.16520245772E+02 0.17682452083E+02
 0.19020536587E+02 0.20344023654E+02 0.21507313296E+02 0.22432592501E+02 0.23110119142E+02
 0.23581423030E+02 0.23900553604E+02 0.24086838745E+02 0.24086838745E+02 0.24146200880E+02
 0.24062907271E+02 0.23803811357E+02 0.23288190244E+02 0.22445655277E+02 0.21257854310E+02
 0.19783409025E+02 0.18167896246E+02 0.16629205984E+02 0.15415554841E+02 0.14744897611E+02
 0.14744897344E+02 0.15415554310E+02 0.16629205727E+02 0.18167896545E+02 0.19783409659E+02
 0.21257854811E+02 0.22445655388E+02 0.23288190099E+02 0.23803811256E+02 0.24062907347E+02
 0.24146201025E+02 0.24086838790E+02 0.23900423283E+02 0.23597127821E+02 0.23182170293E+02
 0.22655647508E+02 0.22011991656E+02 0.21225511789E+02 0.20278777406E+02 0.19200120597E+02
 0.18072882284E+02 0.17027447240E+02 0.16215052225E+02 0.15769535310E+02 0.15769534993E+02
 0.16215051559E+02 0.17027446776E+02 0.18072882297E+02 0.19200120899E+02 0.20278777638E+02
 0.21225511789E+02 0.22011991526E+02 0.22655647427E+02 0.23182170347E+02 0.23597127963E+02
 0.23900423381E+02 0.23900553604E+02 0.24062907271E+02 0.24041131691E+02 0.23732392901E+02
 0.23035628320E+02 0.21897922968E+02 0.20346248637E+02 0.18508390167E+02 0.16610526825E+02
 0.14942950500E+02 0.13796675367E+02 0.13387927606E+02 0.13796675242E+02 0.14942950290E+02
 0.16610526681E+02 0.18508390268E+02 0.20346248980E+02 0.21897923330E+02 0.23035628499E+02
 0.23732392934E+02 0.24041131742E+02 0.24062907371E+02 0.23900553636E+02 0.23597127866E+02
 0.23175612345E+02 0.22653657923E+02 0.22043846378E+02 0.21353653874E+02 0.20587471024E+02
 0.19745038717E+02 0.18827910553E+02 0.17872765549E+02 0.16956780116E+02 0.16185432968E+02
 0.15667461656E+02 0.15484672031E+02 0.15667461523E+02 0.16185432863E+02 0.16956780139E+02
 0.17872765632E+02 0.18827910599E+02 0.19745038734E+02 0.20587471059E+02 0.21353653918E+02
 0.22043846425E+02 0.22653658012E+02 0.23175612485E+02 0.23597127963E+02 0.23581423030E+02
 0.23803811357E+02 0.23732392901E+02 0.23237093012E+02 0.22228312028E+02 0.20693005750E+02
 0.18725001116E+02 0.16536274922E+02 0.14436024749E+02 0.12773015406E+02 0.11852296959E+02
 0.11852296817E+02 0.12773015114E+02 0.14436024530E+02 0.16536274842E+02 0.18725001129E+02
 0.20693005870E+02 0.22228312285E+02 0.23237093283E+02 0.23732393003E+02 0.23803811303E+02
 0.23581423022E+02 0.23182170469E+02 0.22653658094E+02 0.22025818254E+02 0.21323223970E+02
 0.20564780888E+02 0.19763768142E+02 0.18930566566E+02 0.18078659291E+02 0.17226726159E+02
 0.16411572995E+02 0.15696694804E+02 0.15159432741E+02 0.14869944909E+02 0.14869945185E+02
 0.15159433325E+02 0.15696695238E+02 0.16411573068E+02 0.17226725995E+02 0.18078659087E+02
 0.18930566427E+02 0.19763768146E+02 0.20564781079E+02 0.21323224242E+02 0.22025818387E+02
 0.22653658012E+02 0.23182170347E+02 0.23110119142E+02 0.23288190244E+02 0.23035628320E+02
 0.22228312028E+02 0.20810349163E+02 0.18830613509E+02 0.16466230594E+02 0.14017656492E+02
 0.11864342182E+02 0.10383916191E+02 0.98560139648E+01 0.10383916218E+02 0.11864342262E+02
 0.14017656571E+02 0.16466230565E+02 0.18830613383E+02 0.20810349082E+02 0.22228312070E+02
 0.23035628391E+02 0.23288190248E+02 0.23110119147E+02 0.22655647544E+02 0.22043846611E+02
 0.21323224344E+02 0.20530026469E+02 0.19694494421E+02 0.18839864999E+02 0.17982657114E+02
 0.17136084508E+02 0.16316406404E+02 0.15549566383E+02 0.14872782414E+02 0.14333501151E+02
 0.13983070752E+02 0.13861270955E+02 0.13983070758E+02 0.14333501121E+02 0.14872782370E+02
 0.15549566413E+02 0.16316406527E+02 0.17136084632E+02 0.17982657167E+02 0.18839865026E+02
 0.19694494480E+02 0.20530026496E+02 0.21323224242E+02 0.22043846425E+02 0.22655647427E+02
 0.22432592501E+02 0.22445655277E+02 0.21897922968E+02 0.20693005750E+02 0.18830613509E+02
 0.16438564047E+02 0.13782834763E+02 0.11240742038E+02 0.92321525825E+01 0.81216340879E+01
 0.81216345420E+01 0.92321534568E+01 0.11240742512E+02 0.13782834665E+02 0.16438563821E+02
 0.18830613428E+02 0.20693005666E+02 0.21897922802E+02 0.22445655229E+02 0.22432592645E+02
 0.22011991608E+02 0.21353653805E+02 0.20564781070E+02 0.19694494852E+02 0.18784065252E+02
 0.17867173208E+02 0.16968533015E+02 0.16104847422E+02 0.15289032504E+02 0.14536450917E+02
 0.13870164939E+02 0.13322097036E+02 0.12928696487E+02 0.12722403036E+02 0.12722402738E+02
 0.12928695881E+02 0.13322096606E+02 0.13870164812E+02 0.14536450966E+02 0.15289032733E+02
 0.16104847863E+02 0.16968533385E+02 0.17867173114E+02 0.18784064764E+02 0.19694494480E+02
 0.20564781079E+02 0.21353653918E+02 0.22011991526E+02 0.21507313296E+02 0.21257854310E+02
 0.20346248637E+02 0.18725001116E+02 0.16466230594E+02 0.13782834763E+02 0.11019041989E+02
 0.85995958415E+01 0.69415351096E+01 0.63512641864E+01 0.69415351996E+01 0.85995959244E+01
 0.11019042035E+02 0.13782834856E+02 0.16466230777E+02 0.18725001295E+02 0.20346248709E+02
 0.21257854300E+02 0.21507313282E+02 0.21225511755E+02 0.20587470947E+02 0.19763768012E+02
 0.18839865020E+02 0.17867173281E+02 0.16889660102E+02 0.15941315981E+02 0.15045119792E+02
 0.14215163322E+02 0.13461736091E+02 0.12797279774E+02 0.12240292879E+02 0.11815023884E+02
 0.11546791886E+02 0.11454960535E+02 0.11546791727E+02 0.11815023755E+02 0.12240292897E+02
 0.12797279857E+02 0.13461736126E+02 0.14215163300E+02 0.15045119734E+02 0.15941315848E+02
 0.16889659891E+02 0.17867173114E+02 0.18839865026E+02 0.19763768146E+02 0.20587471059E+02
 0.21225511789E+02 0.20344023654E+02 0.19783409025E+02 0.18508390167E+02 0.16536274922E+02
 0.14017656492E+02 0.11240742038E+02 0.85995958415E+01 0.65231668680E+01 0.53787672596E+01
 0.53787667186E+01 0.65231659064E+01 0.85995955049E+01 0.11240742401E+02 0.14017656882E+02
 0.16536275098E+02 0.18508390458E+02 0.19783409459E+02 0.20344023775E+02 0.20278777345E+02
 0.19745038531E+02 0.18930566554E+02 0.17982657139E+02 0.16968532861E+02 0.15941315391E+02
 0.14944314607E+02 0.14008318111E+02 0.13151744374E+02 0.12384230045E+02 0.11712358485E+02
 0.11145022680E+02 0.10695982283E+02 0.10382494208E+02 0.10220805174E+02 0.10220805353E+02
 0.10382494501E+02 0.10695982415E+02 0.11145022839E+02 0.11712358856E+02 0.12384230211E+02
 0.13151743832E+02 0.14008317211E+02 0.14944314268E+02 0.15941315848E+02 0.16968533385E+02
 0.17982657167E+02 0.18930566427E+02 0.19745038734E+02 0.20278777638E+02 0.19020536587E+02
 0.18167896246E+02 0.16610526825E+02 0.14436024749E+02 0.11864342182E+02 0.92321525825E+01
 0.69415351096E+01 0.53787672596E+01 0.48237453007E+01 0.53787673588E+01 0.69415352879E+01
 0.92321527357E+01 0.11864342197E+02 0.14436024675E+02 0.16610526848E+02 0.18167896437E+02
 0.19020536794E+02 0.19200120952E+02 0.18827910531E+02 0.18078659033E+02 0.17136084602E+02
 0.16104847762E+02 0.15045119567E+02 0.14008317118E+02 0.13033249691E+02 0.12144413758E+02
 0.11353916868E+02 0.10666390379E+02 0.10084841096E+02 0.96150130386E+01 0.92665980962E+01
 0.90511547380E+01 0.89781266728E+01 0.90511548116E+01 0.92665981523E+01 0.96150130398E+01
 0.10084841096E+02 0.10666390395E+02 0.11353916833E+02 0.12144413656E+02 0.13033249638E+02
 0.14008317211E+02 0.15045119734E+02 0.16104847863E+02 0.17136084632E+02 0.18078659087E+02
 0.18827910599E+02 0.19200120899E+02 0.17682452083E+02 0.16629205984E+02 0.14942950500E+02
 0.12773015406E+02 0.10383916191E+02 0.81216340879E+01 0.63512641864E+01 0.53787667186E+01
 0.53787673588E+01 0.63512653508E+01 0.81216345858E+01 0.10383915945E+02 0.12773015167E+02
 0.14942950499E+02 0.16629205818E+02 0.17682451740E+02 0.18072882290E+02 0.17872766001E+02
 0.17226726114E+02 0.16316406200E+02 0.15289032640E+02 0.14215163823E+02 0.13151744219E+02
 0.12144413090E+02 0.11224050862E+02 0.10406966075E+02 0.96986208994E+01 0.90992777608E+01
 0.86092863995E+01 0.82321009208E+01 0.79742661026E+01 0.78430005393E+01 0.78430003443E+01
 0.79742658845E+01 0.82321010526E+01 0.86092864542E+01 0.90992772461E+01 0.96986203390E+01
 0.10406966397E+02 0.11224051891E+02 0.12144413656E+02 0.13151743832E+02 0.14215163300E+02
 0.15289032733E+02 0.16316406527E+02 0.17226725995E+02 0.17872765632E+02 0.18072882297E+02
 0.16520245772E+02 0.15415554841E+02 0.13796675367E+02 0.11852296959E+02 0.98560139648E+01
 0.81216345420E+01 0.69415351996E+01 0.65231659064E+01 0.69415352879E+01 0.81216345858E+01
 0.98560138907E+01 0.11852296839E+02 0.13796675294E+02 0.15415554816E+02 0.16520245770E+02
 0.17027446813E+02 0.16956780204E+02 0.16411573071E+02 0.15549566307E+02 0.14536450862E+02
 0.13461736157E+02 0.12384230328E+02 0.11353916850E+02 0.10406966262E+02 0.95642087044E+01
 0.88334634521E+01 0.82145055313E+01 0.77045922048E+01 0.73025694877E+01 0.70104298779E+01
 0.68323775378E+01 0.67724740083E+01 0.68323775363E+01 0.70104299315E+01 0.73025695712E+01
 0.77045922145E+01 0.82145054637E+01 0.88334634464E+01 0.95642088340E+01 0.10406966397E+02
 0.11353916833E+02 0.12384230211E+02 0.13461736126E+02 0.14536450966E+02 0.15549566413E+02
 0.16411573068E+02 0.16956780139E+02 0.17027446776E+02 0.15726304805E+02 0.14744897611E+02
 0.13387927606E+02 0.11852296817E+02 0.10383916218E+02 0.92321534568E+01 0.85995959244E+01
 0.85995955049E+01 0.92321527357E+01 0.10383915945E+02 0.11852296839E+02 0.13387927359E+02
 0.14744897269E+02 0.15726305015E+02 0.16215052234E+02 0.16185433189E+02 0.15696694944E+02
 0.14872782078E+02 0.13870164894E+02 0.12797279841E+02 0.11712358438E+02 0.10666390210E+02
 0.96986209780E+01 0.88334643089E+01 0.80813804186E+01 0.74428814260E+01 0.69138073517E+01
 0.64899192265E+01 0.61694954356E+01 0.59536118321E+01 0.58447254943E+01 0.58447257639E+01
 0.59536121656E+01 0.61694952851E+01 0.64899190253E+01 0.69138077935E+01 0.74428821376E+01
 0.80813803779E+01 0.88334634464E+01 0.96986203390E+01 0.10666390395E+02 0.11712358856E+02
 0.12797279857E+02 0.13870164812E+02 0.14872782370E+02 0.15696695238E+02 0.16185432863E+02
 0.16215051559E+02 0.15443971824E+02 0.14744897344E+02 0.13796675242E+02 0.12773015114E+02
 0.11864342262E+02 0.11240742512E+02 0.11019042035E+02 0.11240742401E+02 0.11864342197E+02
 0.12773015167E+02 0.13796675294E+02 0.14744897269E+02 0.15443971671E+02 0.15769534912E+02
 0.15667461574E+02 0.15159433455E+02 0.14333501265E+02 0.13322096720E+02 0.12240292926E+02
 0.11145022760E+02 0.10084840999E+02 0.90992772668E+01 0.82145056087E+01 0.74428822672E+01
 0.67858843207E+01 0.62388368962E+01 0.57955502128E+01 0.54514732895E+01 0.52048280209E+01
 0.50560295987E+01 0.50062415277E+01 0.50560296532E+01 0.52048280397E+01 0.54514732495E+01
 0.57955501926E+01 0.62388369236E+01 0.67858843019E+01 0.74428821376E+01 0.82145054637E+01
 0.90992772461E+01 0.10084841096E+02 0.11145022839E+02 0.12240292897E+02 0.13322096606E+02
 0.14333501121E+02 0.15159433325E+02 0.15667461523E+02 0.15769534993E+02 0.15726304659E+02
 0.15415554310E+02 0.14942950290E+02 0.14436024530E+02 0.14017656571E+02 0.13782834665E+02
 0.13782834856E+02 0.14017656882E+02 0.14436024675E+02 0.14942950499E+02 0.15415554816E+02
 0.15726305015E+02 0.15769534912E+02 0.15484671160E+02 0.14869944792E+02 0.13983071187E+02
 0.12928696491E+02 0.11815023961E+02 0.10695982398E+02 0.96150131010E+01 0.86092863466E+01
 0.77045916989E+01 0.69138073540E+01 0.62388371888E+01 0.56746650502E+01 0.52137620324E+01
 0.48494356895E+01 0.45774661327E+01 0.43961437690E+01 0.43053333576E+01 0.43053331191E+01
 0.43961434752E+01 0.45774662934E+01 0.48494359521E+01 0.52137617233E+01 0.56746643410E+01
 0.62388369236E+01 0.69138077935E+01 0.77045922145E+01 0.86092864542E+01 0.96150130398E+01
 0.10695982415E+02 0.11815023755E+02 0.12928695881E+02 0.13983070758E+02 0.14869945185E+02
 0.15484672031E+02 0.15769535310E+02 0.16520245705E+02 0.16629205727E+02 0.16610526681E+02
 0.16536274842E+02 0.16466230565E+02 0.16438563821E+02 0.16466230777E+02 0.16536275098E+02
 0.16610526848E+02 0.16629205818E+02 0.16520245770E+02 0.16215052234E+02 0.15667461574E+02
 0.14869944792E+02 0.13861270898E+02 0.12722402759E+02 0.11546791774E+02 0.10382494544E+02
 0.92665981995E+01 0.82321010778E+01 0.73025695227E+01 0.64899189222E+01 0.57955501338E+01
 0.52137617664E+01 0.47358129894E+01 0.43532458501E+01 0.40597521738E+01 0.38515913127E+01
 0.37270490360E+01 0.36855680705E+01 0.37270490000E+01 0.38515912865E+01 0.40597521606E+01
 0.43532458009E+01 0.47358129021E+01 0.52137617233E+01 0.57955501926E+01 0.64899190253E+01
 0.73025695712E+01 0.82321010526E+01 0.92665981523E+01 0.10382494501E+02 0.11546791727E+02
 0.12722402738E+02 0.13861270955E+02 0.14869944909E+02 0.15667461656E+02 0.16215052225E+02
 0.17682452247E+02 0.18167896545E+02 0.18508390268E+02 0.18725001129E+02 0.18830613383E+02
 0.18830613428E+02 0.18725001295E+02 0.18508390458E+02 0.18167896437E+02 0.17682451740E+02
 0.17027446813E+02 0.16185433189E+02 0.15159433455E+02 0.13983071187E+02 0.12722402759E+02
 0.11454959926E+02 0.10220805018E+02 0.90511548858E+01 0.79742661418E+01 0.70104302193E+01
 0.61694955240E+01 0.54514732348E+01 0.48494355749E+01 0.43532453711E+01 0.39527655502E+01
 0.36397979152E+01 0.34086938687E+01 0.32560590134E+01 0.31801111105E+01 0.31801112738E+01
 0.32560592222E+01 0.34086937508E+01 0.36397976436E+01 0.39527656008E+01 0.43532458009E+01
 0.48494359521E+01 0.54514732495E+01 0.61694952851E+01 0.70104299315E+01 0.79742658845E+01
 0.90511548116E+01 0.10220805353E+02 0.11454960535E+02 0.12722403036E+02 0.13983070752E+02
 0.15159432741E+02 0.16185432968E+02 0.17027447240E+02 0.19020536882E+02 0.19783409659E+02
 0.20346248980E+02 0.20693005870E+02 0.20810349082E+02 0.20693005666E+02 0.20346248709E+02
 0.19783409459E+02 0.19020536794E+02 0.18072882290E+02 0.16956780204E+02 0.15696694944E+02
 0.14333501265E+02 0.12928696491E+02 0.11546791774E+02 0.10220805018E+02 0.89781265441E+01
 0.78430002750E+01 0.68323775336E+01 0.59536122199E+01 0.52048280987E+01 0.45774662870E+01
 0.40597520765E+01 0.36397975495E+01 0.33075632419E+01 0.30555646273E+01 0.28787035177E+01
 0.27737645020E+01 0.27389744281E+01 0.27737645239E+01 0.28787035276E+01 0.30555646278E+01
 0.33075632822E+01 0.36397976436E+01 0.40597521606E+01 0.45774662934E+01 0.52048280397E+01
 0.59536121656E+01 0.68323775363E+01 0.78430003443E+01 0.89781266728E+01 0.10220805174E+02
 0.11546791886E+02 0.12928696487E+02 0.14333501151E+02 0.15696694804E+02 0.16956780116E+02
 0.18072882284E+02 0.20344023892E+02 0.21257854811E+02 0.21897923330E+02 0.22228312285E+02
 0.22228312070E+02 0.21897922802E+02 0.21257854300E+02 0.20344023775E+02 0.19200120952E+02
 0.17872766001E+02 0.16411573071E+02 0.14872782078E+02 0.13322096720E+02 0.11815023961E+02
 0.10382494544E+02 0.90511548858E+01 0.78430002750E+01 0.67724735506E+01 0.58447254973E+01
 0.50560297496E+01 0.43961438017E+01 0.38515915749E+01 0.34086938164E+01 0.30555644849E+01
 0.27828989644E+01 0.25838837583E+01 0.24537602886E+01 0.23894612680E+01 0.23894612067E+01
 0.24537601975E+01 0.25838837936E+01 0.27828991367E+01 0.30555646278E+01 0.34086937508E+01
 0.38515912865E+01 0.43961434752E+01 0.50560296532E+01 0.58447257639E+01 0.67724740083E+01
 0.78430005393E+01 0.90511547380E+01 0.10382494208E+02 0.11815023884E+02 0.13322097036E+02
 0.14872782414E+02 0.16411572995E+02 0.17872765549E+02 0.19200120597E+02 0.21507313413E+02
 0.22445655388E+02 0.23035628499E+02 0.23237093283E+02 0.23035628391E+02 0.22445655229E+02
 0.21507313282E+02 0.20278777345E+02 0.18827910531E+02 0.17226726114E+02 0.15549566307E+02
 0.13870164894E+02 0.12240292926E+02 0.10695982398E+02 0.92665981995E+01 0.79742661418E+01
 0.68323775336E+01 0.58447254973E+01 0.50062415591E+01 0.43053331640E+01 0.37270490338E+01
 0.32560592293E+01 0.28787035067E+01 0.25838837623E+01 0.23630635297E+01 0.22098805267E+01
 0.21198166886E+01 0.20901083072E+01 0.21198166656E+01 0.22098805110E+01 0.23630635432E+01
 0.25838837936E+01 0.28787035276E+01 0.32560592222E+01 0.37270490000E+01 0.43053331191E+01
 0.50062415277E+01 0.58447254943E+01 0.68323775378E+01 0.79742661026E+01 0.92665980962E+01
 0.10695982283E+02 0.12240292879E+02 0.13870164939E+02 0.15549566383E+02 0.17226726159E+02
 0.18827910553E+02 0.20278777406E+02 0.22432592539E+02 0.23288190099E+02 0.23732392934E+02
 0.23732393003E+02 0.23288190248E+02 0.22432592645E+02 0.21225511755E+02 0.19745038531E+02
 0.18078659033E+02 0.16316406200E+02 0.14536450862E+02 0.12797279841E+02 0.11145022760E+02
 0.96150131010E+01 0.82321010778E+01 0.70104302193E+01 0.59536122199E+01 0.50560297496E+01
 0.43053331640E+01 0.36855677455E+01 0.31801111080E+01 0.27737645730E+01 0.24537602982E+01
 0.22098805428E+01 0.20341421966E+01 0.19204934059E+01 0.18647527556E+01 0.18647527339E+01
 0.19204933791E+01 0.20341421962E+01 0.22098805110E+01 0.24537601975E+01 0.27737645239E+01
 0.31801112738E+01 0.36855680705E+01 0.43053333576E+01 0.50560295987E+01 0.59536118321E+01
 0.70104298779E+01 0.82321009208E+01 0.96150130386E+01 0.11145022680E+02 0.12797279774E+02
 0.14536450917E+02 0.16316406404E+02 0.18078659291E+02 0.19745038717E+02 0.21225511789E+02
 0.23110119123E+02 0.23803811256E+02 0.24041131742E+02 0.23803811303E+02 0.23110119147E+02
 0.22011991608E+02 0.20587470947E+02 0.18930566554E+02 0.17136084602E+02 0.15289032640E+02
 0.13461736157E+02 0.11712358438E+02 0.10084840999E+02 0.86092863466E+01 0.73025695227E+01
 0.61694955240E+01 0.52048280987E+01 0.43961438017E+01 0.37270490338E+01 0.31801111080E+01
 0.27389744508E+01 0.23894612503E+01 0.21198166992E+01 0.19204933732E+01 0.17838946036E+01
 0.17043337928E+01 0.16782246244E+01 0.17043338331E+01 0.17838946459E+01 0.19204933791E+01
 0.21198166656E+01 0.23894612067E+01 0.27389744281E+01 0.31801111105E+01 0.37270490360E+01
 0.43961437690E+01 0.52048280209E+01 0.61694954356E+01 0.73025694877E+01 0.86092863995E+01
 0.10084841096E+02 0.11712358485E+02 0.13461736091E+02 0.15289032504E+02 0.17136084508E+02
 0.18930566566E+02 0.20587471024E+02 0.22011991656E+02 0.23581422961E+02 0.24062907347E+02
 0.24062907371E+02 0.23581423022E+02 0.22655647544E+02 0.21353653805E+02 0.19763768012E+02
 0.17982657139E+02 0.16104847762E+02 0.14215163823E+02 0.12384230328E+02 0.10666390210E+02
 0.90992772668E+01 0.77045916989E+01 0.64899189222E+01 0.54514732348E+01 0.45774662870E+01
 0.38515915749E+01 0.32560592293E+01 0.27737645730E+01 0.23894612503E+01 0.20901083138E+01
 0.18647527581E+01 0.17043337714E+01 0.16016672775E+01 0.15516654111E+01 0.15516654932E+01
 0.16016674251E+01 0.17043338331E+01 0.18647527339E+01 0.20901083072E+01 0.23894612680E+01
 0.27737645020E+01 0.32560590134E+01 0.38515913127E+01 0.45774661327E+01 0.54514732895E+01
 0.64899192265E+01 0.77045922048E+01 0.90992777608E+01 0.10666390379E+02 0.12384230045E+02
 0.14215163322E+02 0.16104847422E+02 0.17982657114E+02 0.19763768142E+02 0.21353653874E+02
 0.22655647508E+02 0.23900553553E+02 0.24146201025E+02 0.23900553636E+02 0.23182170469E+02
 0.22043846611E+02 0.20564781070E+02 0.18839865020E+02 0.16968532861E+02 0.15045119567E+02
 0.13151744219E+02 0.11353916850E+02 0.96986209780E+01 0.82145056087E+01 0.69138073540E+01
 0.57955501338E+01 0.48494355749E+01 0.40597520765E+01 0.34086938164E+01 0.28787035067E+01
 0.24537602982E+01 0.21198166992E+01 0.18647527581E+01 0.16782246202E+01 0.15516654875E+01
 0.14785183113E+01 0.14546144664E+01 0.14785183147E+01 0.15516654932E+01 0.16782246244E+01
 0.18647527556E+01 0.21198166886E+01 0.24537602886E+01 0.28787035177E+01 0.34086938687E+01
 0.40597521738E+01 0.48494356895E+01 0.57955502128E+01 0.69138073517E+01 0.82145055313E+01
 0.96986208994E+01 0.11353916868E+02 0.13151744374E+02 0.15045119792E+02 0.16968533015E+02
 0.18839864999E+02 0.20564780888E+02 0.22043846378E+02 0.23182170293E+02 0.24086838783E+02
 0.24086838790E+02 0.23597127866E+02 0.22653658094E+02 0.21323224344E+02 0.19694494852E+02
 0.17867173281E+02 0.15941315391E+02 0.14008317118E+02 0.12144413090E+02 0.10406966262E+02
 0.88334643089E+01 0.74428822672E+01 0.62388371888E+01 0.52137617664E+01 0.43532453711E+01
 0.36397975495E+01 0.30555644849E+01 0.25838837623E+01 0.22098805428E+01 0.19204933732E+01
 0.17043337714E+01 0.15516654875E+01 0.14546146118E+01 0.14075615226E+01 0.14075614470E+01
 0.14546144664E+01 0.15516654111E+01 0.17043337928E+01 0.19204934059E+01 0.22098805267E+01
 0.25838837583E+01 0.30555646273E+01 0.36397979152E+01 0.43532458501E+01 0.52137620324E+01
 0.62388368962E+01 0.74428814260E+01 0.88334634521E+01 0.10406966075E+02 0.12144413758E+02
 0.14008318111E+02 0.15941315981E+02 0.17867173208E+02 0.19694494421E+02 0.21323223970E+02
 0.22653657923E+02 0.23597127821E+02 0.24148105342E+02 0.23900423283E+02 0.23175612345E+02
 0.22025818254E+02 0.20530026469E+02 0.18784065252E+02 0.16889660102E+02 0.14944314607E+02
 0.13033249691E+02 0.11224050862E+02 0.95642087044E+01 0.80813804186E+01 0.67858843207E+01
 0.56746650502E+01 0.47358129894E+01 0.39527655502E+01 0.33075632419E+01 0.27828989644E+01
 0.23630635297E+01 0.20341421966E+01 0.17838946036E+01 0.16016672775E+01 0.14785183113E+01
 0.14075615226E+01 0.13844125164E+01 0.14075615226E+01 0.14785183113E+01 0.16016672775E+01
 0.17838946036E+01 0.20341421966E+01 0.23630635297E+01 0.27828989644E+01 0.33075632419E+01
 0.39527655502E+01 0.47358129894E+01 0.56746650502E+01 0.67858843207E+01 0.80813804186E+01
 0.95642087044E+01 0.11224050862E+02 0.13033249691E+02 0.14944314607E+02 0.16889660102E+02
 0.18784065252E+02 0.20530026469E+02 0.22025818254E+02 0.23175612345E+02 0.23900423283E+02
 0.24086838783E+02 0.23597127821E+02 0.22653657923E+02 0.21323223970E+02 0.19694494421E+02
 0.17867173208E+02 0.15941315981E+02 0.14008318111E+02 0.12144413758E+02 0.10406966075E+02
 0.88334634521E+01 0.74428814260E+01 0.62388368962E+01 0.52137620324E+01 0.43532458501E+01
 0.36397979152E+01 0.30555646273E+01 0.25838837583E+01 0.22098805267E+01 0.19204934059E+01
 0.17043337928E+01 0.15516654111E+01 0.14546144664E+01 0.14075614470E+01 0.14075615226E+01
 0.14546146118E+01 0.15516654875E+01 0.17043337714E+01 0.19204933732E+01 0.22098805428E+01
 0.25838837623E+01 0.30555644849E+01 0.36397975495E+01 0.43532453711E+01 0.52137617664E+01
 0.62388371888E+01 0.74428822672E+01 0.88334643089E+01 0.10406966262E+02 0.12144413090E+02
 0.14008317118E+02 0.15941315391E+02 0.17867173281E+02 0.19694494852E+02 0.21323224344E+02
 0.22653658094E+02 0.23597127866E+02 0.24086838790E+02 0.23900553553E+02 0.23182170293E+02
 0.22043846378E+02 0.20564780888E+02 0.18839864999E+02 0.16968533015E+02 0.15045119792E+02
 0.13151744374E+02 0.11353916868E+02 0.96986208994E+01 0.82145055313E+01 0.69138073517E+01
 0.57955502128E+01 0.48494356895E+01 0.40597521738E+01 0.34086938687E+01 0.28787035177E+01
 0.24537602886E+01 0.21198166886E+01 0.18647527556E+01 0.16782246244E+01 0.15516654932E+01
 0.14785183147E+01 0.14546144664E+01 0.14785183113E+01 0.15516654875E+01 0.16782246202E+01
 0.18647527581E+01 0.21198166992E+01 0.24537602982E+01 0.28787035067E+01 0.34086938164E+01
 0.40597520765E+01 0.48494355749E+01 0.57955501338E+01 0.69138073540E+01 0.82145056087E+01
 0.96986209780E+01 0.11353916850E+02 0.13151744219E+02 0.15045119567E+02 0.16968532861E+02
 0.18839865020E+02 0.20564781070E+02 0.22043846611E+02 0.23182170469E+02 0.23900553636E+02
 0.24146201025E+02 0.23581422961E+02 0.22655647508E+02 0.21353653874E+02 0.19763768142E+02
 0.17982657114E+02 0.16104847422E+02 0.14215163322E+02 0.12384230045E+02 0.10666390379E+02
 0.90992777608E+01 0.77045922048E+01 0.64899192265E+01 0.54514732895E+01 0.45774661327E+01
 0.38515913127E+01 0.32560590134E+01 0.27737645020E+01 0.23894612680E+01 0.20901083072E+01
 0.18647527339E+01 0.17043338331E+01 0.16016674251E+01 0.15516654932E+01 0.15516654111E+01
 0.16016672775E+01 0.17043337714E+01 0.18647527581E+01 0.20901083138E+01 0.23894612503E+01
 0.27737645730E+01 0.32560592293E+01 0.38515915749E+01 0.45774662870E+01 0.54514732348E+01
 0.64899189222E+01 0.77045916989E+01 0.90992772668E+01 0.10666390210E+02 0.12384230328E+02
 0.14215163823E+02 0.16104847762E+02 0.17982657139E+02 0.19763768012E+02 0.21353653805E+02
 0.22655647544E+02 0.23581423022E+02 0.24062907371E+02 0.24062907347E+02 0.23110119123E+02
 0.22011991656E+02 0.20587471024E+02 0.18930566566E+02 0.17136084508E+02 0.15289032504E+02
 0.13461736091E+02 0.11712358485E+02 0.10084841096E+02 0.86092863995E+01 0.73025694877E+01
 0.61694954356E+01 0.52048280209E+01 0.43961437690E+01 0.37270490360E+01 0.31801111105E+01
 0.27389744281E+01 0.23894612067E+01 0.21198166656E+01 0.19204933791E+01 0.17838946459E+01
 0.17043338331E+01 0.16782246244E+01 0.17043337928E+01 0.17838946036E+01 0.19204933732E+01
 0.21198166992E+01 0.23894612503E+01 0.27389744508E+01 0.31801111080E+01 0.37270490338E+01
 0.43961438017E+01 0.52048280987E+01 0.61694955240E+01 0.73025695227E+01 0.86092863466E+01
 0.10084840999E+02 0.11712358438E+02 0.13461736157E+02 0.15289032640E+02 0.17136084602E+02
 0.18930566554E+02 0.20587470947E+02 0.22011991608E+02 0.23110119147E+02 0.23803811303E+02
 0.24041131742E+02 0.23803811256E+02 0.22432592539E+02 0.21225511789E+02 0.19745038717E+02
 0.18078659291E+02 0.16316406404E+02 0.14536450917E+02 0.12797279774E+02 0.11145022680E+02
 0.96150130386E+01 0.82321009208E+01 0.70104298779E+01 0.59536118321E+01 0.50560295987E+01
 0.43053333576E+01 0.36855680705E+01 0.31801112738E+01 0.27737645239E+01 0.24537601975E+01
 0.22098805110E+01 0.20341421962E+01 0.19204933791E+01 0.18647527339E+01 0.18647527556E+01
 0.19204934059E+01 0.20341421966E+01 0.22098805428E+01 0.24537602982E+01 0.27737645730E+01
 0.31801111080E+01 0.36855677455E+01 0.43053331640E+01 0.50560297496E+01 0.59536122199E+01
 0.70104302193E+01 0.82321010778E+01 0.96150131010E+01 0.11145022760E+02 0.12797279841E+02
 0.14536450862E+02 0.16316406200E+02 0.18078659033E+02 0.19745038531E+02 0.21225511755E+02
 0.22432592645E+02 0.23288190248E+02 0.23732393003E+02 0.23732392934E+02 0.23288190099E+02
 0.21507313413E+02 0.20278777406E+02 0.18827910553E+02 0.17226726159E+02 0.15549566383E+02
 0.13870164939E+02 0.12240292879E+02 0.10695982283E+02 0.92665980962E+01 0.79742661026E+01
 0.68323775378E+01 0.58447254943E+01 0.50062415277E+01 0.43053331191E+01 0.37270490000E+01
 0.32560592222E+01 0.28787035276E+01 0.25838837936E+01 0.23630635432E+01 0.22098805110E+01
 0.21198166656E+01 0.20901083072E+01 0.21198166886E+01 0.22098805267E+01 0.23630635297E+01
 0.25838837623E+01 0.28787035067E+01 0.32560592293E+01 0.37270490338E+01 0.43053331640E+01
 0.50062415591E+01 0.58447254973E+01 0.68323775336E+01 0.79742661418E+01 0.92665981995E+01
 0.10695982398E+02 0.12240292926E+02 0.13870164894E+02 0.15549566307E+02 0.17226726114E+02
 0.18827910531E+02 0.20278777345E+02 0.21507313282E+02 0.22445655229E+02 0.23035628391E+02
 0.23237093283E+02 0.23035628499E+02 0.22445655388E+02 0.20344023892E+02 0.19200120597E+02
 0.17872765549E+02 0.16411572995E+02 0.14872782414E+02 0.13322097036E+02 0.11815023884E+02
 0.10382494208E+02 0.90511547380E+01 0.78430005393E+01 0.67724740083E+01 0.58447257639E+01
 0.50560296532E+01 0.43961434752E+01 0.38515912865E+01 0.34086937508E+01 0.30555646278E+01
 0.27828991367E+01 0.25838837936E+01 0.24537601975E+01 0.23894612067E+01 0.23894612680E+01
 0.24537602886E+01 0.25838837583E+01 0.27828989644E+01 0.30555644849E+01 0.34086938164E+01
 0.38515915749E+01 0.43961438017E+01 0.50560297496E+01 0.58447254973E+01 0.67724735506E+01
 0.78430002750E+01 0.90511548858E+01 0.10382494544E+02 0.11815023961E+02 0.13322096720E+02
 0.14872782078E+02 0.16411573071E+02 0.17872766001E+02 0.19200120952E+02 0.20344023775E+02
 0.21257854300E+02 0.21897922802E+02 0.22228312070E+02 0.22228312285E+02 0.21897923330E+02
 0.21257854811E+02 0.19020536882E+02 0.18072882284E+02 0.16956780116E+02 0.15696694804E+02
 0.14333501151E+02 0.12928696487E+02 0.11546791886E+02 0.10220805174E+02 0.89781266728E+01
 0.78430003443E+01 0.68323775363E+01 0.59536121656E+01 0.52048280397E+01 0.45774662934E+01
 0.40597521606E+01 0.36397976436E+01 0.33075632822E+01 0.30555646278E+01 0.28787035276E+01
 0.27737645239E+01 0.27389744281E+01 0.27737645020E+01 0.28787035177E+01 0.30555646273E+01
 0.33075632419E+01 0.36397975495E+01 0.40597520765E+01 0.45774662870E+01 0.52048280987E+01
 0.59536122199E+01 0.68323775336E+01 0.78430002750E+01 0.89781265441E+01 0.10220805018E+02
 0.11546791774E+02 0.12928696491E+02 0.14333501265E+02 0.15696694944E+02 0.16956780204E+02
 0.18072882290E+02 0.19020536794E+02 0.19783409459E+02 0.20346248709E+02 0.20693005666E+02
 0.20810349082E+02 0.20693005870E+02 0.20346248980E+02 0.19783409659E+02 0.17682452247E+02
 0.17027447240E+02 0.16185432968E+02 0.15159432741E+02 0.13983070752E+02 0.12722403036E+02
 0.11454960535E+02 0.10220805353E+02 0.90511548116E+01 0.79742658845E+01 0.70104299315E+01
 0.61694952851E+01 0.54514732495E+01 0.48494359521E+01 0.43532458009E+01 0.39527656008E+01
 0.36397976436E+01 0.34086937508E+01 0.32560592222E+01 0.31801112738E+01 0.31801111105E+01
 0.32560590134E+01 0.34086938687E+01 0.36397979152E+01 0.39527655502E+01 0.43532453711E+01
 0.48494355749E+01 0.54514732348E+01 0.61694955240E+01 0.70104302193E+01 0.79742661418E+01
 0.90511548858E+01 0.10220805018E+02 0.11454959926E+02 0.12722402759E+02 0.13983071187E+02
 0.15159433455E+02 0.16185433189E+02 0.17027446813E+02 0.17682451740E+02 0.18167896437E+02
 0.18508390458E+02 0.18725001295E+02 0.18830613428E+02 0.18830613383E+02 0.18725001129E+02