    2    2    1    1
  0.2044258E+02  0.3866876E-09  0.3866876E-09  0.3866876E-09  0.5000000E-15
  1.000000000000000E-004
  CAR 
 Real silicon                            
      8    600     16
 
  0.0000000E+00  0.0000000E+00  0.0000000E+00  0.1666667E-02
    1       -6.097382   1.000000
    2        5.743110   0.999975
    3        5.743111   0.999975
    4        5.743111   0.999975
    5        8.251360   0.000000
    6        8.251361   0.000000
    7        8.251361   0.000000
    8        8.887659   0.000000
    9       13.391239   0.000000
   10       13.391239   0.000000
   11       13.581190   0.000000
   12       16.839756   0.000000
   13       16.839757   0.000000
   14       16.839757   0.000000
   15       20.987011   0.000000
   16       28.577012   0.000000
 
  0.5050505E-02  0.0000000E+00  0.5050505E-02  0.1666667E-02
    1       -6.096945   1.000000
    2        5.739890   0.999980
    3        5.741157   0.999978
    4        5.741157   0.999978
    5        8.250260   0.000000
    6        8.253857   0.000000
    7        8.253857   0.000000
    8        8.890822   0.000000
    9       13.387507   0.000000
   10       13.391726   0.000000
   11       13.583165   0.000000
   12       16.840526   0.000000
   13       16.840526   0.000000
   14       16.842435   0.000000
   15       20.990198   0.000000
   16       28.571370   0.000000
 
  0.1010101E-01  0.0000000E+00  0.1010101E-01  0.1666667E-02
    1       -6.095629   1.000000
    2        5.730268   0.999989
    3        5.735319   0.999985
    4        5.735319   0.999985
    5        8.246963   0.000000
    6        8.261320   0.000000
    7        8.261320   0.000000
    8        8.900266   0.000000
    9       13.376368   0.000000
   10       13.393189   0.000000
   11       13.589082   0.000000
   12       16.842835   0.000000
   13       16.842835   0.000000
   14       16.850423   0.000000
   15       20.999754   0.000000
   16       28.549212   0.000000
 
  0.1515152E-01  0.0000000E+00  0.1515152E-01  0.1666667E-02
    1       -6.093425   1.000000
    2        5.714373   0.999996
    3        5.725675   0.999992
    4        5.725675   0.999992
    5        8.241493   0.000000
    6        8.273682   0.000000
    7        8.273682   0.000000
    8        8.915873   0.000000
    9       13.357989   0.000000
   10       13.395628   0.000000
   11       13.598929   0.000000
   12       16.846695   0.000000
   13       16.846695   0.000000
   14       16.863579   0.000000
   15       21.015669   0.000000
   16       28.510683   0.000000
 
  0.2020202E-01  0.0000000E+00  0.2020202E-01  0.1666667E-02
    1       -6.090348   1.000000
    2        5.692378   0.999999
    3        5.712329   0.999997
    4        5.712330   0.999997
    5        8.233866   0.000000
    6        8.290820   0.000000
    7        8.290820   0.000000
    8        8.937389   0.000000
    9       13.332640   0.000000
   10       13.399040   0.000000
   11       13.612669   0.000000
   12       16.852079   0.000000
   13       16.852079   0.000000
   14       16.881675   0.000000
   15       21.037908   0.000000
   16       28.460597   0.000000
 
  0.2525253E-01  0.0000000E+00  0.2525253E-01  0.1666667E-02
    1       -6.086390   1.000000
    2        5.664555   1.000000
    3        5.695447   0.999999
    4        5.695447   0.999999
    5        8.224130   0.000000
    6        8.312587   0.000000
    7        8.312587   0.000000
    8        8.964567   0.000000
    9       13.300688   0.000000
   10       13.403426   0.000000
   11       13.630274   0.000000
   12       16.859002   0.000000
   13       16.859002   0.000000
   14       16.904413   0.000000
   15       21.066442   0.000000
   16       28.398570   0.000000
 
  0.3030303E-01  0.0000000E+00  0.3030303E-01  0.1666667E-02
    1       -6.081553   1.000000
    2        5.631209   1.000000
    3        5.675205   1.000000
    4        5.675206   1.000000
    5        8.212324   0.000000
    6        8.338791   0.000000
    7        8.338791   0.000000
    8        8.997024   0.000000
    9       13.262565   0.000000
   10       13.408789   0.000000
   11       13.651682   0.000000
   12       16.867462   0.000000
   13       16.867463   0.000000
   14       16.931448   0.000000
   15       21.101223   0.000000
   16       28.325761   0.000000
 
  0.3535354E-01  0.0000000E+00  0.3535354E-01  0.1666667E-02
    1       -6.075833   1.000000
    2        5.592674   1.000000
    3        5.651818   1.000000
    4        5.651818   1.000000
    5        8.198510   0.000000
    6        8.369228   0.000000
    7        8.369229   0.000000
    8        9.034381   0.000000
    9       13.218767   0.000000
   10       13.415133   0.000000
   11       13.676841   0.000000
   12       16.877462   0.000000
   13       16.877463   0.000000
   14       16.962400   0.000000
   15       21.142196   0.000000
   16       28.243491   0.000000
 
  0.4040404E-01  0.0000000E+00  0.4040404E-01  0.1666667E-02
    1       -6.069238   1.000000
    2        5.549306   1.000000
    3        5.625504   1.000000
    4        5.625504   1.000000
    5        8.182752   0.000000
    6        8.403667   0.000000
    7        8.403667   0.000000
    8        9.076204   0.000000
    9       13.169830   0.000000
   10       13.422445   0.000000
   11       13.705684   0.000000
   12       16.888994   0.000000
   13       16.888994   0.000000
   14       16.996844   0.000000
   15       21.189287   0.000000
   16       28.152931   0.000000
 
  0.4545455E-01  0.0000000E+00  0.4545455E-01  0.1666667E-02
    1       -6.061764   1.000000
    2        5.501474   1.000000
    3        5.596500   1.000000
    4        5.596500   1.000000
    5        8.165123   0.000000
    6        8.441875   0.000000
    7        8.441875   0.000000
    8        9.122042   0.000000
    9       13.116319   0.000000
   10       13.430733   0.000000
   11       13.738136   0.000000
   12       16.902059   0.000000
   13       16.902059   0.000000
   14       17.034382   0.000000
   15       21.242416   0.000000
   16       28.055224   0.000000
 
  0.5050505E-01  0.0000000E+00  0.5050505E-01  0.1666667E-02
    1       -6.053412   1.000000
    2        5.449542   1.000000
    3        5.565040   1.000000
    4        5.565040   1.000000
    5        8.145698   0.000000
    6        8.483615   0.000000
    7        8.483616   0.000000
    8        9.171427   0.000000
    9       13.058821   0.000000
   10       13.439994   0.000000
   11       13.774117   0.000000
   12       16.916657   0.000000
   13       16.916657   0.000000
   14       17.074617   0.000000
   15       21.301489   0.000000
   16       27.951372   0.000000
 
  0.5555556E-01  0.0000000E+00  0.5555556E-01  0.1666667E-02
    1       -6.044181   1.000000
    2        5.393861   1.000000
    3        5.531357   1.000000
    4        5.531357   1.000000
    5        8.124563   0.000000
    6        8.528653   0.000000
    7        8.528654   0.000000
    8        9.223882   0.000000
    9       12.997929   0.000000
   10       13.450231   0.000000
   11       13.813540   0.000000
   12       16.932784   0.000000
   13       16.932784   0.000000
   14       17.117169   0.000000
   15       21.366400   0.000000
   16       27.842258   0.000000
 
  0.6060606E-01  0.0000000E+00  0.6060606E-01  0.1666667E-02
    1       -6.034074   1.000000
    2        5.334773   1.000000
    3        5.495677   1.000000
    4        5.495677   1.000000
    5        8.101804   0.000000
    6        8.576761   0.000000
    7        8.576761   0.000000
    8        9.278920   0.000000
    9       12.934246   0.000000
   10       13.461442   0.000000
   11       13.856314   0.000000
   12       16.950440   0.000000
   13       16.950440   0.000000
   14       17.161692   0.000000
   15       21.437027   0.000000
   16       27.728646   0.000000
 
  0.6565657E-01  0.0000000E+00  0.6565657E-01  0.1666667E-02
    1       -6.023089   1.000000
    2        5.272594   1.000000
    3        5.458215   1.000000
    4        5.458215   1.000000
    5        8.077512   0.000000
    6        8.627720   0.000000
    7        8.627720   0.000000
    8        9.336049   0.000000
    9       12.868377   0.000000
   10       13.473628   0.000000
   11       13.902346   0.000000
   12       16.969622   0.000000
   13       16.969622   0.000000
   14       17.207870   0.000000
   15       21.513240   0.000000
   16       27.611196   0.000000
 
  0.7070707E-01  0.0000000E+00  0.7070707E-01  0.1666667E-02
    1       -6.011228   1.000000
    2        5.207622   1.000000
    3        5.419177   1.000000
    4        5.419177   1.000000
    5        8.051780   0.000000
    6        8.681324   0.000000
    7        8.681324   0.000000
    8        9.394763   0.000000
    9       12.800937   0.000000
   10       13.486788   0.000000
   11       13.951537   0.000000
   12       16.990326   0.000000
   13       16.990326   0.000000
   14       17.255424   0.000000
   15       21.594894   0.000000
   16       27.490479   0.000000
 
  0.7575758E-01  0.0000000E+00  0.7575758E-01  0.1666667E-02
    1       -5.998491   1.000000
    2        5.140127   1.000000
    3        5.378752   1.000000
    4        5.378753   1.000000
    5        8.024701   0.000000
    6        8.737378   0.000000
    7        8.737378   0.000000
    8        9.454545   0.000000
    9       12.732549   0.000000
   10       13.500922   0.000000
   11       14.003790   0.000000
   12       17.012550   0.000000
   13       17.012550   0.000000
   14       17.304112   0.000000
   15       21.681835   0.000000
   16       27.366984   0.000000
 
  0.8080808E-01  0.0000000E+00  0.8080808E-01  0.1666667E-02
    1       -5.984880   1.000000
    2        5.070359   1.000000
    3        5.337120   1.000000
    4        5.337120   1.000000
    5        7.996370   0.000000
    6        8.795702   0.000000
    7        8.795702   0.000000
    8        9.514853   0.000000
    9       12.663854   0.000000
   10       13.516030   0.000000
   11       14.059004   0.000000
   12       17.036289   0.000000
   13       17.036289   0.000000
   14       17.353727   0.000000
   15       21.773897   0.000000
   16       27.241133   0.000000
 
  0.8585859E-01  0.0000000E+00  0.8585859E-01  0.1666667E-02
    1       -5.970395   1.000000
    2        4.998544   1.000000
    3        5.294443   1.000000
    4        5.294443   1.000000
    5        7.966881   0.000000
    6        8.856129   0.000000
    7        8.856129   0.000000
    8        9.575115   0.000000
    9       12.595518   0.000000
   10       13.532113   0.000000
   11       14.117079   0.000000
   12       17.061540   0.000000
   13       17.061540   0.000000
   14       17.404098   0.000000
   15       21.870907   0.000000
   16       27.113292   0.000000
 
  0.9090909E-01  0.0000000E+00  0.9090909E-01  0.1666667E-02
    1       -5.955043   1.000000
    2        4.924887   1.000000
    3        5.250873   1.000000
    4        5.250873   1.000000
    5        7.936327   0.000000
    6        8.918505   0.000000
    7        8.918505   0.000000
    8        9.634719   0.000000
    9       12.528242   0.000000
   10       13.549169   0.000000
   11       14.177917   0.000000
   12       17.088298   0.000000
   13       17.088298   0.000000
   14       17.455088   0.000000
   15       21.972682   0.000000
   16       26.983777   0.000000
 
  0.9595960E-01  0.0000000E+00  0.9595960E-01  0.1666667E-02
    1       -5.938816   1.000000
    2        4.849573   1.000000
    3        5.206548   1.000000
    4        5.206548   1.000000
    5        7.904802   0.000000
    6        8.982690   0.000000
    7        8.982691   0.000000
    8        9.693006   0.000000
    9       12.462773   0.000000
   10       13.567199   0.000000
   11       14.241417   0.000000
   12       17.116558   0.000000
   13       17.116558   0.000000
   14       17.506590   0.000000
   15       22.079044   0.000000
   16       26.852868   0.000000
 
  0.1010101E+00  0.0000000E+00  0.1010101E+00  0.1666667E-02
    1       -5.921721   1.000000
    2        4.772767   1.000000
    3        5.161593   1.000000
    4        5.161593   1.000000
    5        7.872396   0.000000
    6        9.048551   0.000000
    7        9.048551   0.000000
    8        9.749249   0.000000
    9       12.399911   0.000000
   10       13.586202   0.000000
   11       14.307482   0.000000
   12       17.146312   0.000000
   13       17.146312   0.000000
   14       17.558513   0.000000
   15       22.189780   0.000000
   16       26.720800   0.000000
 
  0.1060606E+00  0.0000000E+00  0.1060606E+00  0.1666667E-02
    1       -5.903752   1.000000
    2        4.694618   1.000000
    3        5.116125   1.000000
    4        5.116125   1.000000
    5        7.839197   0.000000
    6        9.115971   0.000000
    7        9.115971   0.000000
    8        9.802661   0.000000
    9       12.340521   0.000000
   10       13.606179   0.000000
   11       14.376018   0.000000
   12       17.177556   0.000000
   13       17.177556   0.000000
   14       17.610802   0.000000
   15       22.304703   0.000000
   16       26.587806   0.000000
 
  0.1111111E+00  0.0000000E+00  0.1111111E+00  0.1666667E-02
    1       -5.884918   1.000000
    2        4.615260   1.000000
    3        5.070247   1.000000
    4        5.070248   1.000000
    5        7.805289   0.000000
    6        9.184841   0.000000
    7        9.184841   0.000000
    8        9.852378   0.000000
    9       12.285532   0.000000
   10       13.627130   0.000000
   11       14.446925   0.000000
   12       17.210276   0.000000
   13       17.210276   0.000000
   14       17.663418   0.000000
   15       22.423607   0.000000
   16       26.454041   0.000000
 
  0.1161616E+00  0.0000000E+00  0.1161616E+00  0.1666667E-02
    1       -5.865217   1.000000
    2        4.534813   1.000000
    3        5.024056   1.000000
    4        5.024056   1.000000
    5        7.770742   0.000000
    6        9.255062   0.000000
    7        9.255062   0.000000
    8        9.897475   0.000000
    9       12.235934   0.000000
   10       13.649053   0.000000
   11       14.520112   0.000000
   12       17.244466   0.000000
   13       17.244466   0.000000
   14       17.716340   0.000000
   15       22.546291   0.000000
   16       26.319682   0.000000
 
  0.1212121E+00  0.0000000E+00  0.1212121E+00  0.1666667E-02
    1       -5.844647   1.000000
    2        4.453384   1.000000
    3        4.977637   1.000000
    4        4.977638   1.000000
    5        7.735666   0.000000
    6        9.326543   0.000000
    7        9.326543   0.000000
    8        9.936982   0.000000
    9       12.192758   0.000000
   10       13.671949   0.000000
   11       14.595490   0.000000
   12       17.280117   0.000000
   13       17.280117   0.000000
   14       17.769560   0.000000
   15       22.672549   0.000000
   16       26.184898   0.000000
 
  0.1262626E+00  0.0000000E+00  0.1262626E+00  0.1666667E-02
    1       -5.823211   1.000000
    2        4.371069   1.000000
    3        4.931071   1.000000
    4        4.931071   1.000000
    5        7.700122   0.000000
    6        9.399202   0.000000
    7        9.399202   0.000000
    8        9.969916   0.000000
    9       12.157039   0.000000
   10       13.695817   0.000000
   11       14.672971   0.000000
   12       17.317216   0.000000
   13       17.317217   0.000000
   14       17.823084   0.000000
   15       22.802175   0.000000
   16       26.049818   0.000000
 
  0.1313131E+00  0.0000000E+00  0.1313131E+00  0.1666667E-02
    1       -5.800910   1.000000
    2        4.287956   1.000000
    3        4.884428   1.000000
    4        4.884428   1.000000
    5        7.664185   0.000000
    6        9.472963   0.000000
    7        9.472963   0.000000
    8        9.995341   0.000000
    9       12.129764   0.000000
   10       13.720658   0.000000
   11       14.752468   0.000000
   12       17.355751   0.000000
   13       17.355751   0.000000
   14       17.876928   0.000000
   15       22.934962   0.000000
   16       25.914566   0.000000
 
  0.1363636E+00  0.0000000E+00  0.1363636E+00  0.1666667E-02
    1       -5.777745   1.000000
    2        4.204121   1.000000
    3        4.837775   1.000000
    4        4.837775   1.000000
    5        7.627926   0.000000
    6        9.547754   0.000000
    7        9.547755   0.000000
    8       10.012438   0.000000
    9       12.111801   0.000000
   10       13.746471   0.000000
   11       14.833896   0.000000
   12       17.395707   0.000000
   13       17.395707   0.000000
   14       17.931115   0.000000
   15       23.070705   0.000000
   16       25.779257   0.000000
 
  0.1414141E+00  0.0000000E+00  0.1414141E+00  0.1666667E-02
    1       -5.753719   1.000000
    2        4.119629   1.000000
    3        4.791170   1.000000
    4        4.791171   1.000000
    5        7.591413   0.000000
    6        9.623512   0.000000
    7        9.623513   0.000000
    8       10.020582   0.000000
    9       12.103815   0.000000
   10       13.773257   0.000000
   11       14.917174   0.000000
   12       17.437067   0.000000
   13       17.437067   0.000000
   14       17.985676   0.000000
   15       23.209200   0.000000
   16       25.643996   0.000000
 
  0.1464646E+00  0.0000000E+00  0.1464646E+00  0.1666667E-02
    1       -5.728837   1.000000
    2        4.034549   1.000000
    3        4.744669   1.000000
    4        4.744670   1.000000
    5        7.554698   0.000000
    6        9.700178   0.000000
    7        9.700178   0.000000
    8       10.019413   0.000000
    9       12.106209   0.000000
   10       13.801013   0.000000
   11       15.002223   0.000000
   12       17.479805   0.000000
   13       17.479805   0.000000
   14       18.040644   0.000000
   15       23.350239   0.000000
   16       25.508800   0.000000
 
  0.1515152E+00  0.0000000E+00  0.1515152E+00  0.1666667E-02
    1       -5.703091   1.000000
    2        3.948935   1.000000
    3        4.698322   1.000000
    4        4.698322   1.000000
    5        7.517870   0.000000
    6        9.777702   0.000000
    7        9.777702   0.000000
    8       10.008877   0.000000
    9       12.119075   0.000000
   10       13.829742   0.000000
   11       15.088965   0.000000
   12       17.523915   0.000000
   13       17.523915   0.000000
   14       18.096061   0.000000
   15       23.493617   0.000000
   16       25.373927   0.000000
 
  0.1565657E+00  0.0000000E+00  0.1565657E+00  0.1666667E-02
    1       -5.676488   1.000000
    2        3.862841   1.000000
    3        4.652174   1.000000
    4        4.652174   1.000000
    5        7.480973   0.000000
    6        9.856033   0.000000
    7        9.856033   0.000000
    8        9.989224   0.000000
    9       12.142195   0.000000
   10       13.859441   0.000000
   11       15.177325   0.000000
   12       17.569365   0.000000
   13       17.569365   0.000000
   14       18.151966   0.000000
   15       23.639130   0.000000
   16       25.239385   0.000000
 
  0.1616162E+00  0.0000000E+00  0.1616162E+00  0.1666667E-02
    1       -5.649029   1.000000
    2        3.776310   1.000000
    3        4.606266   1.000000
    4        4.606266   1.000000
    5        7.444065   0.000000
    6        9.935124   0.000000
    7        9.935124   0.000000
    8        9.960971   0.000000
    9       12.175083   0.000000
   10       13.890112   0.000000
   11       15.267227   0.000000
   12       17.616130   0.000000
   13       17.616130   0.000000
   14       18.208403   0.000000
   15       23.786569   0.000000
   16       25.105259   0.000000
 
  0.1666667E+00  0.0000000E+00  0.1666667E+00  0.1666667E-02
    1       -5.620716   1.000000
    2        3.689385   1.000000
    3        4.560637   1.000000
    4        4.560638   1.000000
    5        7.407199   0.000000
    6        9.924833   0.000000
    7       10.014934   0.000000
    8       10.014934   0.000000
    9       12.217051   0.000000
   10       13.921753   0.000000
   11       15.358598   0.000000
   12       17.664179   0.000000
   13       17.664179   0.000000
   14       18.265415   0.000000
   15       23.935729   0.000000
   16       24.971633   0.000000
 
  0.1717172E+00  0.0000000E+00  0.1717172E+00  0.1666667E-02
    1       -5.591550   1.000000
    2        3.602104   1.000000
    3        4.515323   1.000000
    4        4.515323   1.000000
    5        7.370425   0.000000
    6        9.881646   0.000000
    7       10.095424   0.000000
    8       10.095424   0.000000
    9       12.267288   0.000000
   10       13.954364   0.000000
   11       15.451367   0.000000
   12       17.713478   0.000000
   13       17.713478   0.000000
   14       18.323048   0.000000
   15       24.086401   0.000000
   16       24.838590   0.000000
 
  0.1767677E+00  0.0000000E+00  0.1767677E+00  0.1666667E-02
    1       -5.561539   1.000000
    2        3.514501   1.000000
    3        4.470355   1.000000
    4        4.470355   1.000000
    5        7.333792   0.000000
    6        9.832292   0.000000
    7       10.176558   0.000000
    8       10.176558   0.000000
    9       12.324934   0.000000
   10       13.987945   0.000000
   11       15.545462   0.000000
   12       17.763989   0.000000
   13       17.763989   0.000000
   14       18.381346   0.000000
   15       24.238375   0.000000
   16       24.706213   0.000000
 
  0.1818182E+00  0.0000000E+00  0.1818182E+00  0.1666667E-02
    1       -5.530682   1.000000
    2        3.426605   1.000000
    3        4.425761   1.000000
    4        4.425761   1.000000
    5        7.297344   0.000000
    6        9.777641   0.000000
    7       10.258302   0.000000
    8       10.258302   0.000000
    9       12.389139   0.000000
   10       14.022496   0.000000
   11       15.640811   0.000000
   12       17.815671   0.000000
   13       17.815671   0.000000
   14       18.440352   0.000000
   15       24.391437   0.000000
   16       24.574582   0.000000
 
  0.1868687E+00  0.0000000E+00  0.1868687E+00  0.1666667E-02
    1       -5.498978   1.000000
    2        3.338446   1.000000
    3        4.381571   1.000000
    4        4.381571   1.000000
    5        7.261126   0.000000
    6        9.718511   0.000000
    7       10.340624   0.000000
    8       10.340625   0.000000
    9       12.459100   0.000000
   10       14.058017   0.000000
   11       15.737345   0.000000
   12       17.868473   0.000000
   13       17.868473   0.000000
   14       18.500112   0.000000
   15       24.443786   0.000000
   16       24.443786   0.000000
 
  0.1919192E+00  0.0000000E+00  0.1919192E+00  0.1666667E-02
    1       -5.466428   1.000000
    2        3.250052   1.000000
    3        4.337810   1.000000
    4        4.337810   1.000000
    5        7.225180   0.000000
    6        9.655650   0.000000
    7       10.423497   0.000000
    8       10.423498   0.000000
    9       12.534086   0.000000
   10       14.094506   0.000000
   11       15.834991   0.000000
   12       17.922341   0.000000
   13       17.922341   0.000000
   14       18.560666   0.000000
   15       24.313914   0.000000
   16       24.313914   0.000000
 
  0.1969697E+00  0.0000000E+00  0.1969697E+00  0.1666667E-02
    1       -5.433036   1.000000
    2        3.161446   1.000000
    3        4.294502   1.000000
    4        4.294502   1.000000
    5        7.189544   0.000000
    6        9.589721   0.000000
    7       10.506894   0.000000
    8       10.506894   0.000000
    9       12.613445   0.000000
   10       14.131965   0.000000
   11       15.933680   0.000000
   12       17.977212   0.000000
   13       17.977212   0.000000
   14       18.622058   0.000000
   15       24.185058   0.000000
   16       24.185058   0.000000
 
  0.2020202E+00  0.0000000E+00  0.2020202E+00  0.1666667E-02
    1       -5.398808   1.000000
    2        3.072650   1.000000
    3        4.251667   1.000000
    4        4.251668   1.000000
    5        7.154251   0.000000
    6        9.521307   0.000000
    7       10.590785   0.000000
    8       10.590785   0.000000
    9       12.696605   0.000000
   10       14.170391   0.000000
   11       16.033339   0.000000
   12       18.033004   0.000000
   13       18.033004   0.000000
   14       18.684326   0.000000
   15       24.057269   0.000000
   16       24.057270   0.000000
 
  0.2070707E+00  0.0000000E+00  0.2070707E+00  0.1666667E-02
    1       -5.363728   1.000000
    2        2.983685   1.000000
    3        4.209332   1.000000
    4        4.209333   1.000000
    5        7.119347   0.000000
    6        9.450914   0.000000
    7       10.675156   0.000000
    8       10.675156   0.000000
    9       12.783078   0.000000
   10       14.209786   0.000000
   11       16.133902   0.000000
   12       18.089667   0.000000
   13       18.089667   0.000000
   14       18.747510   0.000000
   15       23.930773   0.000000
   16       23.930773   0.000000
 
  0.2121212E+00  0.0000000E+00  0.2121212E+00  0.1666667E-02
    1       -5.327821   1.000000
    2        2.894570   1.000000
    3        4.167508   1.000000
    4        4.167508   1.000000
    5        7.084861   0.000000
    6        9.378977   0.000000
    7       10.759980   0.000000
    8       10.759981   0.000000
    9       12.872417   0.000000
   10       14.250148   0.000000
   11       16.235284   0.000000
   12       18.147085   0.000000
   13       18.147085   0.000000
   14       18.811649   0.000000
   15       23.805588   0.000000
   16       23.805588   0.000000
 
  0.2171717E+00  0.0000000E+00  0.2171717E+00  0.1666667E-02
    1       -5.291081   1.000000
    2        2.805312   1.000000
    3        4.126214   1.000000
    4        4.126214   1.000000
    5        7.050816   0.000000
    6        9.305869   0.000000
    7       10.845236   0.000000
    8       10.845237   0.000000
    9       12.964260   0.000000
   10       14.291477   0.000000
   11       16.337413   0.000000
   12       18.205153   0.000000
   13       18.205154   0.000000
   14       18.876771   0.000000
   15       23.681841   0.000000
   16       23.681841   0.000000
 
  0.2222222E+00  0.0000000E+00  0.2222222E+00  0.1666667E-02
    1       -5.253508   1.000000
    2        2.715939   1.000000
    3        4.085468   1.000000
    4        4.085469   1.000000
    5        7.017258   0.000000
    6        9.231910   0.000000
    7       10.930908   0.000000
    8       10.930909   0.000000
    9       13.058286   0.000000
   10       14.333773   0.000000
   11       16.440212   0.000000
   12       18.263766   0.000000
   13       18.263766   0.000000
   14       18.942920   0.000000
   15       23.559714   0.000000
   16       23.559714   0.000000
 
  0.2272727E+00  0.0000000E+00  0.2272727E+00  0.1666667E-02
    1       -5.215106   1.000000
    2        2.626473   1.000000
    3        4.045287   1.000000
    4        4.045287   1.000000
    5        6.984210   0.000000
    6        9.157382   0.000000
    7       11.016979   0.000000
    8       11.016979   0.000000
    9       13.154226   0.000000
   10       14.377035   0.000000
   11       16.543602   0.000000
   12       18.322781   0.000000
   13       18.322781   0.000000
   14       19.010134   0.000000
   15       23.439341   0.000000
   16       23.439341   0.000000
 
  0.2323232E+00  0.0000000E+00  0.2323232E+00  0.1666667E-02
    1       -5.175871   1.000000
    2        2.536922   1.000000
    3        4.005684   1.000000
    4        4.005684   1.000000
    5        6.951699   0.000000
    6        9.082531   0.000000
    7       11.103430   0.000000
    8       11.103430   0.000000
    9       13.251845   0.000000
   10       14.421263   0.000000
   11       16.647504   0.000000
   12       18.382045   0.000000
   13       18.382045   0.000000
   14       19.078472   0.000000
   15       23.320894   0.000000
   16       23.320894   0.000000
 
  0.2373737E+00  0.0000000E+00  0.2373737E+00  0.1666667E-02
    1       -5.135818   1.000000
    2        2.447301   1.000000
    3        3.966670   1.000000
    4        3.966670   1.000000
    5        6.919749   0.000000
    6        9.007538   0.000000
    7       11.190247   0.000000
    8       11.190247   0.000000
    9       13.350923   0.000000
   10       14.466457   0.000000
   11       16.751818   0.000000
   12       18.441375   0.000000
   13       18.441375   0.000000
   14       19.147901   0.000000
   15       23.204561   0.000000
   16       23.204561   0.000000
 
  0.2424242E+00  0.0000000E+00  0.2424242E+00  0.1666667E-02
    1       -5.094945   1.000000
    2        2.357624   1.000000
    3        3.928259   1.000000
    4        3.928260   1.000000
    5        6.888387   0.000000
    6        8.932592   0.000000
    7       11.277416   0.000000
    8       11.277416   0.000000
    9       13.451284   0.000000
   10       14.512616   0.000000
   11       16.856459   0.000000
   12       18.500567   0.000000
   13       18.500567   0.000000
   14       19.218484   0.000000
   15       23.090563   0.000000
   16       23.090563   0.000000
 
  0.2474747E+00  0.0000000E+00  0.2474747E+00  0.1666667E-02
    1       -5.053253   1.000000
    2        2.267905   1.000000
    3        3.890464   1.000000
    4        3.890464   1.000000
    5        6.857636   0.000000
    6        8.857849   0.000000
    7       11.364923   0.000000
    8       11.364923   0.000000
    9       13.552769   0.000000
   10       14.559739   0.000000
   11       16.961330   0.000000
   12       18.559386   0.000000
   13       18.559386   0.000000
   14       19.290249   0.000000
   15       22.979146   0.000000
   16       22.979146   0.000000
 
  0.2525253E+00  0.0000000E+00  0.2525253E+00  0.1666667E-02
    1       -5.010746   1.000000
    2        2.178155   1.000000
    3        3.853294   1.000000
    4        3.853294   1.000000
    5        6.827519   0.000000