 vasp.5.4.1 24Jun15 (build May 02 2016 14:41:14) complex                        
  
 executed on           IFC91_ompi date 2022.05.13  11:38:49
 running on   16 total cores
 distrk:  each k-point on   16 cores,    1 groups
 distr:  one band on NCORES_PER_BAND=   1 cores,   16 groups


--------------------------------------------------------------------------------------------------------


 INCAR:
 POTCAR:   PAW_PBE Si 05Jan2001                   

 ----------------------------------------------------------------------------- 
|                                                                             |
|           W    W    AA    RRRRR   N    N  II  N    N   GGGG   !!!           |
|           W    W   A  A   R    R  NN   N  II  NN   N  G    G  !!!           |
|           W    W  A    A  R    R  N N  N  II  N N  N  G       !!!           |
|           W WW W  AAAAAA  RRRRR   N  N N  II  N  N N  G  GGG   !            |
|           WW  WW  A    A  R   R   N   NN  II  N   NN  G    G                |
|           W    W  A    A  R    R  N    N  II  N    N   GGGG   !!!           |
|                                                                             |
|      For optimal performance we recommend to set                            |
|        NCORE= 4 - approx SQRT( number of cores)                             |
|      NCORE specifies how many cores store one orbital (NPAR=cpu/NCORE).     |
|      This setting can  greatly improve the performance of VASP for DFT.     |
|      The default, NPAR=number of cores might be grossly inefficient         |
|      on modern multi-core architectures or massively parallel machines.     |
|      Do your own testing !!!!                                               |
|      Unfortunately you need to use the default for GW and RPA calculations. |
|      (for HF NCORE is supported but not extensively tested yet)             |
|                                                                             |
 ----------------------------------------------------------------------------- 

 POTCAR:   PAW_PBE Si 05Jan2001                   
   VRHFIN =Si: s2p2                                                             
   LEXCH  = PE                                                                  
   EATOM  =   103.0669 eV,    7.5752 Ry                                         
                                                                                
   TITEL  = PAW_PBE Si 05Jan2001                                                
   LULTRA =        F    use ultrasoft PP ?                                      
   IUNSCR =        1    unscreen: 0-lin 1-nonlin 2-no                           
   RPACOR =    1.500    partial core radius                                     
   POMASS =   28.085; ZVAL   =    4.000    mass and valenz                      
   RCORE  =    1.900    outmost cutoff radius                                   
   RWIGS  =    2.480; RWIGS  =    1.312    wigner-seitz radius (au A)           
   ENMAX  =  245.345; ENMIN  =  184.009 eV                                      
   ICORE  =        2    local potential                                         
   LCOR   =        T    correct aug charges                                     
   LPAW   =        T    paw PP                                                  
   EAUG   =  322.069                                                            
   DEXC   =    -.007                                                            
   RMAX   =    2.944    core radius for proj-oper                               
   RAUG   =    1.300    factor for augmentation sphere                          
   RDEP   =    1.993    radius for radial grids                                 
   QCUT   =   -4.246; QGAM   =    8.493    optimization parameters              
                                                                                
   Description                                                                  
     l     E      TYP  RCUT    TYP  RCUT                                        
     0   .000     23  1.900                                                     
     0   .000     23  1.900                                                     
     1   .000     23  1.900                                                     
     1   .000     23  1.900                                                     
     2   .000      7  1.900                                                     
  local pseudopotential read in
  partial core-charges read in
  atomic valenz-charges read in
  non local Contribution for L=           0  read in
    real space projection operators read in
  non local Contribution for L=           0  read in
    real space projection operators read in
  non local Contribution for L=           1  read in
    real space projection operators read in
  non local Contribution for L=           1  read in
    real space projection operators read in
    PAW grid and wavefunctions read in
 
   number of l-projection  operators is LMAX  =           4
   number of lm-projection operators is LMMAX =           8
 
 PAW_PBE Si 05Jan2001                   :
 energy of atom  1       EATOM= -103.0669
 kinetic energy error for atom=    0.0006 (will be added to EATOM!!)
 
 
 POSCAR: Real silicon (diamond-like)             
  positions in direct lattice
  velocities in cartesian coordinates
 exchange correlation table for  LEXCH =        8
   RHO(1)=    0.500       N(1)  =     2000
   RHO(2)=  100.500       N(2)  =     4000
 


--------------------------------------------------------------------------------------------------------


 ion  position               nearest neighbor table
   1  0.875  0.875  0.875-   2 2.37   2 2.37   2 2.37   2 2.37
   2  0.125  0.125  0.125-   1 2.37   1 2.37   1 2.37   1 2.37
 
  LATTYP: Found a face centered cubic cell.
 ALAT       =     5.4685883424
  
  Lattice vectors:
  
 A1 = (   0.0000000000,   2.7342941712,   2.7342941712)
 A2 = (   2.7342941712,   0.0000000000,   2.7342941712)
 A3 = (   2.7342941712,   2.7342941712,   0.0000000000)


Analysis of symmetry for initial positions (statically):
=====================================================================
 Subroutine PRICEL returns:
 Original cell was already a primitive cell.
 

 Routine SETGRP: Setting up the symmetry group for a 
 face centered cubic supercell.


 Subroutine GETGRP returns: Found 48 space group operations
 (whereof 12 operations were pure point group operations)
 out of a pool of 48 trial point group operations.


The static configuration has the point symmetry D_3d.
 The point group associated with its full space group is O_h .


Analysis of symmetry for dynamics (positions and initial velocities):
=====================================================================
 Subroutine PRICEL returns:
 Original cell was already a primitive cell.
 

 Routine SETGRP: Setting up the symmetry group for a 
 face centered cubic supercell.


 Subroutine GETGRP returns: Found 48 space group operations
 (whereof 12 operations were pure point group operations)
 out of a pool of 48 trial point group operations.


The dynamic configuration has the point symmetry D_3d.
 The point group associated with its full space group is O_h .
 
 
 KPOINTS: kpoints for bandstructure GAMMA-X-U|K-GA
  interpolating k-points between supplied coordinates
  k-points in reciprocal lattice
Space group operators:
 irot       det(A)        alpha          n_x          n_y          n_z        tau_x        tau_y        tau_z
    1     1.000000     0.000001     1.000000     0.000000     0.000000     0.000000     0.000000     0.000000
    2    -1.000000     0.000001     1.000000     0.000000     0.000000     0.000000     0.000000     0.000000
    3     1.000000   120.000000    -0.577350    -0.577350    -0.577350     0.000000     0.000000     0.000000
    4    -1.000000   120.000000    -0.577350    -0.577350    -0.577350     0.000000     0.000000     0.000000
    5     1.000000   120.000000     0.577350     0.577350     0.577350     0.000000     0.000000     0.000000
    6    -1.000000   120.000000     0.577350     0.577350     0.577350     0.000000     0.000000     0.000000
    7     1.000000   180.000000     0.000000    -0.707107     0.707107     0.000000     0.000000     0.000000
    8    -1.000000   180.000000     0.000000    -0.707107     0.707107     0.000000     0.000000     0.000000
    9     1.000000   180.000000     0.707107    -0.707107     0.000000     0.000000     0.000000     0.000000
   10    -1.000000   180.000000     0.707107    -0.707107     0.000000     0.000000     0.000000     0.000000
   11     1.000000   180.000000     0.707107     0.000000    -0.707107     0.000000     0.000000     0.000000
   12    -1.000000   180.000000     0.707107     0.000000    -0.707107     0.000000     0.000000     0.000000
   13     1.000000    90.000000     0.000000     0.000000    -1.000000     0.500000     0.000000     0.000000
   14    -1.000000    90.000000     0.000000     0.000000    -1.000000     0.500000     0.000000     0.000000
   15     1.000000   180.000000     0.000000     0.707107     0.707107     0.500000     0.000000     0.000000
   16    -1.000000   180.000000     0.000000     0.707107     0.707107     0.500000     0.000000     0.000000
   17     1.000000    90.000000     0.000000     1.000000     0.000000     0.500000     0.000000     0.000000
   18    -1.000000    90.000000     0.000000     1.000000     0.000000     0.500000     0.000000     0.000000
   19     1.000000   180.000000     0.000000     0.000000     1.000000     0.000000     0.000000     0.500000
   20    -1.000000   180.000000     0.000000     0.000000     1.000000     0.000000     0.000000     0.500000
   21     1.000000   120.000000    -0.577350     0.577350     0.577350     0.000000     0.000000     0.500000
   22    -1.000000   120.000000    -0.577350     0.577350     0.577350     0.000000     0.000000     0.500000
   23     1.000000   120.000000    -0.577350     0.577350    -0.577350     0.000000     0.000000     0.500000
   24    -1.000000   120.000000    -0.577350     0.577350    -0.577350     0.000000     0.000000     0.500000
   25     1.000000    90.000000     0.000000     0.000000     1.000000     0.000000     0.500000     0.000000
   26    -1.000000    90.000000     0.000000     0.000000     1.000000     0.000000     0.500000     0.000000
   27     1.000000    90.000000    -1.000000     0.000000     0.000000     0.000000     0.500000     0.000000
   28    -1.000000    90.000000    -1.000000     0.000000     0.000000     0.000000     0.500000     0.000000
   29     1.000000   180.000000     0.707107     0.000000     0.707107     0.000000     0.500000     0.000000
   30    -1.000000   180.000000     0.707107     0.000000     0.707107     0.000000     0.500000     0.000000
   31     1.000000   120.000000     0.577350    -0.577350     0.577350     0.500000     0.000000     0.000000
   32    -1.000000   120.000000     0.577350    -0.577350     0.577350     0.500000     0.000000     0.000000
   33     1.000000   120.000000    -0.577350    -0.577350     0.577350     0.500000     0.000000     0.000000
   34    -1.000000   120.000000    -0.577350    -0.577350     0.577350     0.500000     0.000000     0.000000
   35     1.000000   180.000000     1.000000     0.000000     0.000000     0.500000     0.000000     0.000000
   36    -1.000000   180.000000     1.000000     0.000000     0.000000     0.500000     0.000000     0.000000
   37     1.000000    90.000000     0.000000    -1.000000     0.000000     0.000000     0.000000     0.500000
   38    -1.000000    90.000000     0.000000    -1.000000     0.000000     0.000000     0.000000     0.500000
   39     1.000000   180.000000     0.707107     0.707107     0.000000     0.000000     0.000000     0.500000
   40    -1.000000   180.000000     0.707107     0.707107     0.000000     0.000000     0.000000     0.500000
   41     1.000000    90.000000     1.000000     0.000000     0.000000     0.000000     0.000000     0.500000
   42    -1.000000    90.000000     1.000000     0.000000     0.000000     0.000000     0.000000     0.500000
   43     1.000000   120.000000     0.577350    -0.577350    -0.577350     0.000000     0.500000     0.000000
   44    -1.000000   120.000000     0.577350    -0.577350    -0.577350     0.000000     0.500000     0.000000
   45     1.000000   180.000000     0.000000     1.000000     0.000000     0.000000     0.500000     0.000000
   46    -1.000000   180.000000     0.000000     1.000000     0.000000     0.000000     0.500000     0.000000
   47     1.000000   120.000000     0.577350     0.577350    -0.577350     0.000000     0.500000     0.000000
   48    -1.000000   120.000000     0.577350     0.577350    -0.577350     0.000000     0.500000     0.000000


--------------------------------------------------------------------------------------------------------




 Dimension of arrays:
   k-points           NKPTS =    600   k-points in BZ     NKDIM =    600   number of bands    NBANDS=     16
   number of dos      NEDOS =    301   number of ions     NIONS =      2
   non local maximal  LDIM  =      4   non local SUM 2l+1 LMDIM =      8
   total plane-waves  NPLWV =  13824
   max r-space proj   IRMAX =      1   max aug-charges    IRDMAX=  11503
   dimension x,y,z NGX =    24 NGY =   24 NGZ =   24
   dimension x,y,z NGXF=    48 NGYF=   48 NGZF=   48
   support grid    NGXF=    48 NGYF=   48 NGZF=   48
   ions per type =               2
 NGX,Y,Z   is equivalent  to a cutoff of  10.32, 10.32, 10.32 a.u.
 NGXF,Y,Z  is equivalent  to a cutoff of  20.64, 20.64, 20.64 a.u.


 I would recommend the setting:
   dimension x,y,z NGX =    21 NGY =   21 NGZ =   21
 SYSTEM =  Real silicon                            
 POSCAR =  Real silicon (diamond-like)             

 Startparameter for this run:
   NWRITE =      2    write-flag & timer
   PREC   = normal    normal or accurate (medium, high low for compatibility)
   ISTART =      0    job   : 0-new  1-cont  2-samecut
   ICHARG =      2    charge: 1-file 2-atom 10-const
   ISPIN  =      1    spin polarized calculation?
   LNONCOLLINEAR =      F non collinear calculations
   LSORBIT =      F    spin-orbit coupling
   INIWAV =      1    electr: 0-lowe 1-rand  2-diag
   LASPH  =      F    aspherical Exc in radial PAW
   METAGGA=      F    non-selfconsistent MetaGGA calc.

 Electronic Relaxation 1
   ENCUT  =  500.0 eV  36.75 Ry    6.06 a.u.   7.05  7.05  7.05*2*pi/ulx,y,z
   ENINI  =  500.0     initial cutoff
   ENAUG  =  322.1 eV  augmentation charge cutoff
   NELM   =    100;   NELMIN=  4; NELMDL= -5     # of ELM steps 
   EDIFF  = 0.1E-05   stopping-criterion for ELM
   LREAL  =      F    real-space projection
   NLSPLINE    = F    spline interpolate recip. space projectors
   LCOMPAT=      F    compatible to vasp.4.4
   GGA_COMPAT  = T    GGA compatible to vasp.4.4-vasp.4.6
   LMAXPAW     = -100 max onsite density
   LMAXMIX     =    2 max onsite mixed and CHGCAR
   VOSKOWN=      0    Vosko Wilk Nusair interpolation
   ROPT   =    0.00000
 Ionic relaxation
   EDIFFG = 0.1E-04   stopping-criterion for IOM
   NSW    =      0    number of steps for IOM
   NBLOCK =      1;   KBLOCK =      1    inner block; outer block 
   IBRION =     -1    ionic relax: 0-MD 1-quasi-New 2-CG
   NFREE  =      0    steps in history (QN), initial steepest desc. (CG)
   ISIF   =      2    stress and relaxation
   IWAVPR =     10    prediction:  0-non 1-charg 2-wave 3-comb
   ISYM   =      2    0-nonsym 1-usesym 2-fastsym
   LCORR  =      T    Harris-Foulkes like correction to forces

   POTIM  = 0.5000    time-step for ionic-motion
   TEIN   =    0.0    initial temperature
   TEBEG  =    0.0;   TEEND  =   0.0 temperature during run
   SMASS  =  -3.00    Nose mass-parameter (am)
   estimated Nose-frequenzy (Omega)   =  0.10E-29 period in steps =****** mass=  -0.342E-27a.u.
   SCALEE = 1.0000    scale energy and forces
   NPACO  =    256;   APACO  = 16.0  distance and # of slots for P.C.
   PSTRESS=    0.0 pullay stress

  Mass of Ions in am
   POMASS =  28.09
  Ionic Valenz
   ZVAL   =   4.00
  Atomic Wigner-Seitz radii
   RWIGS  =  -1.00
  virtual crystal weights 
   VCA    =   1.00
   NELECT =       8.0000    total number of electrons
   NUPDOWN=      -1.0000    fix difference up-down

 DOS related values:
   EMIN   =  10.00;   EMAX   =-10.00  energy-range for DOS
   EFERMI =   0.00
   ISMEAR =     0;   SIGMA  =   0.10  broadening in eV -4-tet -1-fermi 0-gaus

 Electronic relaxation 2 (details)
   IALGO  =     38    algorithm
   LDIAG  =      T    sub-space diagonalisation (order eigenvalues)
   LSUBROT=      F    optimize rotation matrix (better conditioning)
   TURBO    =      0    0=normal 1=particle mesh
   IRESTART =      0    0=no restart 2=restart with 2 vectors
   NREBOOT  =      0    no. of reboots
   NMIN     =      0    reboot dimension
   EREF     =   0.00    reference energy to select bands
   IMIX   =      4    mixing-type and parameters
     AMIX     =   0.40;   BMIX     =  1.00
     AMIX_MAG =   1.60;   BMIX_MAG =  1.00
     AMIN     =   0.10
     WC   =   100.;   INIMIX=   1;  MIXPRE=   1;  MAXMIX= -45

 Intra band minimization:
   WEIMIN = 0.0000     energy-eigenvalue tresh-hold
   EBREAK =  0.16E-07  absolut break condition
   DEPER  =   0.30     relativ break condition  

   TIME   =   0.40     timestep for ELM

  volume/ion in A,a.u.               =      20.44       137.95
  Fermi-wavevector in a.u.,A,eV,Ry     =   0.950422  1.796036 12.290157  0.903301
  Thomas-Fermi vector in A             =   2.078797
 
 Write flags
   LWAVE  =      T    write WAVECAR
   LCHARG =      T    write CHGCAR
   LVTOT  =      F    write LOCPOT, total local potential
   LVHAR  =      F    write LOCPOT, Hartree potential only
   LELF   =      F    write electronic localiz. function (ELF)
   LORBIT =      0    0 simple, 1 ext, 2 COOP (PROOUT)


 Dipole corrections
   LMONO  =      F    monopole corrections only (constant potential shift)
   LDIPOL =      F    correct potential (dipole corrections)
   IDIPOL =      0    1-x, 2-y, 3-z, 4-all directions 
   EPSILON=  1.0000000 bulk dielectric constant

 Exchange correlation treatment:
   GGA     =    --    GGA type
   LEXCH   =     8    internal setting for exchange type
   VOSKOWN=      0    Vosko Wilk Nusair interpolation
   LHFCALC =     F    Hartree Fock is set to
   LHFONE  =     F    Hartree Fock one center treatment
   AEXX    =    0.0000 exact exchange contribution

 Linear response parameters
   LEPSILON=     F    determine dielectric tensor
   LRPA    =     F    only Hartree local field effects (RPA)
   LNABLA  =     F    use nabla operator in PAW spheres
   LVEL    =     F    velocity operator in full k-point grid
   LINTERFAST=   F  fast interpolation
   KINTER  =     0    interpolate to denser k-point grid
   CSHIFT  =0.1000    complex shift for real part using Kramers Kronig
   OMEGAMAX=  -1.0    maximum frequency
   DEG_THRESHOLD= 0.2000000E-02 threshold for treating states as degnerate
   RTIME   =    0.100 relaxation time in fs

 Orbital magnetization related:
   ORBITALMAG=     F  switch on orbital magnetization
   LCHIMAG   =     F  perturbation theory with respect to B field
   DQ        =  0.001000  dq finite difference perturbation B field



--------------------------------------------------------------------------------------------------------


 Static calculation
 charge density and potential will be updated during run
 non-spin polarized calculation
 Variant of blocked Davidson
 Davidson routine will perform the subspace rotation
 perform sub-space diagonalisation
    after iterative eigenvector-optimisation
 modified Broyden-mixing scheme, WC =      100.0
 initial mixing is a Kerker type mixing with AMIX =  0.4000 and BMIX =      1.0000
 Hartree-type preconditioning will be used
 using additional bands           12
 reciprocal scheme for non local part
 use partial core corrections
 calculate Harris-corrections to forces 
   (improved forces if not selfconsistent)
 use gradient corrections 
 use of overlap-Matrix (Vanderbilt PP)
 Gauss-broadening in eV      SIGMA  =   0.10


--------------------------------------------------------------------------------------------------------


  energy-cutoff  :      500.00
  volume of cell :       40.89
      direct lattice vectors                 reciprocal lattice vectors
     0.000000000  2.734294171  2.734294171    -0.182862548  0.182862548  0.182862548
     2.734294171  0.000000000  2.734294171     0.182862548 -0.182862548  0.182862548
     2.734294171  2.734294171  0.000000000     0.182862548  0.182862548 -0.182862548

  length of vectors
     3.866875900  3.866875900  3.866875900     0.316727224  0.316727224  0.316727224


 
 k-points in units of 2pi/SCALE and weight: kpoints for bandstructure GAMMA-X-U|K-GA
   0.00000000  0.00000000  0.00000000       0.002
   0.00000000  0.01015903  0.00000000       0.002
   0.00000000  0.02031806  0.00000000       0.002
   0.00000000  0.03047709  0.00000000       0.002
   0.00000000  0.04063612  0.00000000       0.002
   0.00000000  0.05079515  0.00000000       0.002
   0.00000000  0.06095418  0.00000000       0.002
   0.00000000  0.07111321  0.00000000       0.002
   0.00000000  0.08127224  0.00000000       0.002
   0.00000000  0.09143127  0.00000000       0.002
   0.00000000  0.10159030  0.00000000       0.002
   0.00000000  0.11174934  0.00000000       0.002
   0.00000000  0.12190837  0.00000000       0.002
   0.00000000  0.13206740  0.00000000       0.002
   0.00000000  0.14222643  0.00000000       0.002
   0.00000000  0.15238546  0.00000000       0.002
   0.00000000  0.16254449  0.00000000       0.002
   0.00000000  0.17270352  0.00000000       0.002
   0.00000000  0.18286255  0.00000000       0.002
   0.00000000  0.19302158  0.00000000       0.002
   0.00000000  0.20318061  0.00000000       0.002
   0.00000000  0.21333964  0.00000000       0.002
   0.00000000  0.22349867  0.00000000       0.002
   0.00000000  0.23365770  0.00000000       0.002
   0.00000000  0.24381673  0.00000000       0.002
   0.00000000  0.25397576  0.00000000       0.002
   0.00000000  0.26413479  0.00000000       0.002
   0.00000000  0.27429382  0.00000000       0.002
   0.00000000  0.28445285  0.00000000       0.002
   0.00000000  0.29461188  0.00000000       0.002
   0.00000000  0.30477091  0.00000000       0.002
   0.00000000  0.31492994  0.00000000       0.002
   0.00000000  0.32508897  0.00000000       0.002
   0.00000000  0.33524801  0.00000000       0.002
   0.00000000  0.34540704  0.00000000       0.002
   0.00000000  0.35556607  0.00000000       0.002
   0.00000000  0.36572510  0.00000000       0.002
   0.00000000  0.37588413  0.00000000       0.002
   0.00000000  0.38604316  0.00000000       0.002
   0.00000000  0.39620219  0.00000000       0.002
   0.00000000  0.40636122  0.00000000       0.002
   0.00000000  0.41652025  0.00000000       0.002
   0.00000000  0.42667928  0.00000000       0.002
   0.00000000  0.43683831  0.00000000       0.002
   0.00000000  0.44699734  0.00000000       0.002
   0.00000000  0.45715637  0.00000000       0.002
   0.00000000  0.46731540  0.00000000       0.002
   0.00000000  0.47747443  0.00000000       0.002
   0.00000000  0.48763346  0.00000000       0.002
   0.00000000  0.49779249  0.00000000       0.002
   0.00000000  0.50795152  0.00000000       0.002
   0.00000000  0.51811055  0.00000000       0.002
   0.00000000  0.52826958  0.00000000       0.002
   0.00000000  0.53842861  0.00000000       0.002
   0.00000000  0.54858764  0.00000000       0.002
   0.00000000  0.55874668  0.00000000       0.002
   0.00000000  0.56890571  0.00000000       0.002
   0.00000000  0.57906474  0.00000000       0.002
   0.00000000  0.58922377  0.00000000       0.002
   0.00000000  0.59938280  0.00000000       0.002
   0.00000000  0.60954183  0.00000000       0.002
   0.00000000  0.61970086  0.00000000       0.002
   0.00000000  0.62985989  0.00000000       0.002
   0.00000000  0.64001892  0.00000000       0.002
   0.00000000  0.65017795  0.00000000       0.002
   0.00000000  0.66033698  0.00000000       0.002
   0.00000000  0.67049601  0.00000000       0.002
   0.00000000  0.68065504  0.00000000       0.002
   0.00000000  0.69081407  0.00000000       0.002
   0.00000000  0.70097310  0.00000000       0.002
   0.00000000  0.71113213  0.00000000       0.002
   0.00000000  0.72129116  0.00000000       0.002
   0.00000000  0.73145019  0.00000000       0.002
   0.00000000  0.74160922  0.00000000       0.002
   0.00000000  0.75176825  0.00000000       0.002
   0.00000000  0.76192728  0.00000000       0.002
   0.00000000  0.77208632  0.00000000       0.002
   0.00000000  0.78224535  0.00000000       0.002
   0.00000000  0.79240438  0.00000000       0.002
   0.00000000  0.80256341  0.00000000       0.002
   0.00000000  0.81272244  0.00000000       0.002
   0.00000000  0.82288147  0.00000000       0.002
   0.00000000  0.83304050  0.00000000       0.002
   0.00000000  0.84319953  0.00000000       0.002
   0.00000000  0.85335856  0.00000000       0.002
   0.00000000  0.86351759  0.00000000       0.002
   0.00000000  0.87367662  0.00000000       0.002
   0.00000000  0.88383565  0.00000000       0.002
   0.00000000  0.89399468  0.00000000       0.002
   0.00000000  0.90415371  0.00000000       0.002
   0.00000000  0.91431274  0.00000000       0.002
   0.00000000  0.92447177  0.00000000       0.002
   0.00000000  0.93463080  0.00000000       0.002
   0.00000000  0.94478983  0.00000000       0.002
   0.00000000  0.95494886  0.00000000       0.002
   0.00000000  0.96510789  0.00000000       0.002
   0.00000000  0.97526692  0.00000000       0.002
   0.00000000  0.98542595  0.00000000       0.002
   0.00000000  0.99558499  0.00000000       0.002
   0.00000000  1.00574402  0.00000000       0.002
   0.00000000  1.00574402  0.00000000       0.002
   0.00253976  1.00574402  0.00253976       0.002
   0.00507952  1.00574402  0.00507952       0.002
   0.00761927  1.00574402  0.00761927       0.002
   0.01015903  1.00574402  0.01015903       0.002
   0.01269879  1.00574402  0.01269879       0.002
   0.01523855  1.00574402  0.01523855       0.002
   0.01777830  1.00574402  0.01777830       0.002
   0.02031806  1.00574402  0.02031806       0.002
   0.02285782  1.00574402  0.02285782       0.002
   0.02539758  1.00574402  0.02539758       0.002
   0.02793733  1.00574402  0.02793733       0.002
   0.03047709  1.00574402  0.03047709       0.002
   0.03301685  1.00574402  0.03301685       0.002
   0.03555661  1.00574402  0.03555661       0.002
   0.03809636  1.00574402  0.03809636       0.002
   0.04063612  1.00574402  0.04063612       0.002
   0.04317588  1.00574402  0.04317588       0.002
   0.04571564  1.00574402  0.04571564       0.002
   0.04825539  1.00574402  0.04825539       0.002
   0.05079515  1.00574402  0.05079515       0.002
   0.05333491  1.00574402  0.05333491       0.002
   0.05587467  1.00574402  0.05587467       0.002
   0.05841443  1.00574402  0.05841443       0.002
   0.06095418  1.00574402  0.06095418       0.002
   0.06349394  1.00574402  0.06349394       0.002
   0.06603370  1.00574402  0.06603370       0.002
   0.06857346  1.00574402  0.06857346       0.002
   0.07111321  1.00574402  0.07111321       0.002
   0.07365297  1.00574402  0.07365297       0.002
   0.07619273  1.00574402  0.07619273       0.002
   0.07873249  1.00574402  0.07873249       0.002
   0.08127224  1.00574402  0.08127224       0.002
   0.08381200  1.00574402  0.08381200       0.002
   0.08635176  1.00574402  0.08635176       0.002
   0.08889152  1.00574402  0.08889152       0.002
   0.09143127  1.00574402  0.09143127       0.002
   0.09397103  1.00574402  0.09397103       0.002
   0.09651079  1.00574402  0.09651079       0.002
   0.09905055  1.00574402  0.09905055       0.002
   0.10159030  1.00574402  0.10159030       0.002
   0.10413006  1.00574402  0.10413006       0.002
   0.10666982  1.00574402  0.10666982       0.002
   0.10920958  1.00574402  0.10920958       0.002
   0.11174934  1.00574402  0.11174934       0.002
   0.11428909  1.00574402  0.11428909       0.002
   0.11682885  1.00574402  0.11682885       0.002
   0.11936861  1.00574402  0.11936861       0.002
   0.12190837  1.00574402  0.12190837       0.002
   0.12444812  1.00574402  0.12444812       0.002
   0.12698788  1.00574402  0.12698788       0.002
   0.12952764  1.00574402  0.12952764       0.002
   0.13206740  1.00574402  0.13206740       0.002
   0.13460715  1.00574402  0.13460715       0.002
   0.13714691  1.00574402  0.13714691       0.002
   0.13968667  1.00574402  0.13968667       0.002
   0.14222643  1.00574402  0.14222643       0.002
   0.14476618  1.00574402  0.14476618       0.002
   0.14730594  1.00574402  0.14730594       0.002
   0.14984570  1.00574402  0.14984570       0.002
   0.15238546  1.00574402  0.15238546       0.002
   0.15492521  1.00574402  0.15492521       0.002
   0.15746497  1.00574402  0.15746497       0.002
   0.16000473  1.00574402  0.16000473       0.002
   0.16254449  1.00574402  0.16254449       0.002
   0.16508425  1.00574402  0.16508425       0.002
   0.16762400  1.00574402  0.16762400       0.002
   0.17016376  1.00574402  0.17016376       0.002
   0.17270352  1.00574402  0.17270352       0.002
   0.17524328  1.00574402  0.17524328       0.002
   0.17778303  1.00574402  0.17778303       0.002
   0.18032279  1.00574402  0.18032279       0.002
   0.18286255  1.00574402  0.18286255       0.002
   0.18540231  1.00574402  0.18540231       0.002
   0.18794206  1.00574402  0.18794206       0.002
   0.19048182  1.00574402  0.19048182       0.002
   0.19302158  1.00574402  0.19302158       0.002
   0.19556134  1.00574402  0.19556134       0.002
   0.19810109  1.00574402  0.19810109       0.002
   0.20064085  1.00574402  0.20064085       0.002
   0.20318061  1.00574402  0.20318061       0.002
   0.20572037  1.00574402  0.20572037       0.002
   0.20826012  1.00574402  0.20826012       0.002
   0.21079988  1.00574402  0.21079988       0.002
   0.21333964  1.00574402  0.21333964       0.002
   0.21587940  1.00574402  0.21587940       0.002
   0.21841915  1.00574402  0.21841915       0.002
   0.22095891  1.00574402  0.22095891       0.002
   0.22349867  1.00574402  0.22349867       0.002
   0.22603843  1.00574402  0.22603843       0.002
   0.22857819  1.00574402  0.22857819       0.002
   0.23111794  1.00574402  0.23111794       0.002
   0.23365770  1.00574402  0.23365770       0.002
   0.23619746  1.00574402  0.23619746       0.002
   0.23873722  1.00574402  0.23873722       0.002
   0.24127697  1.00574402  0.24127697       0.002
   0.24381673  1.00574402  0.24381673       0.002
   0.24635649  1.00574402  0.24635649       0.002
   0.24889625  1.00574402  0.24889625       0.002
   0.25143600  1.00574402  0.25143600       0.002
   0.75430801  0.75430801  0.00000000       0.002
   0.74668874  0.74668874  0.00000000       0.002
   0.73906947  0.73906947  0.00000000       0.002
   0.73145019  0.73145019  0.00000000       0.002
   0.72383092  0.72383092  0.00000000       0.002
   0.71621165  0.71621165  0.00000000       0.002
   0.70859237  0.70859237  0.00000000       0.002
   0.70097310  0.70097310  0.00000000       0.002
   0.69335383  0.69335383  0.00000000       0.002
   0.68573456  0.68573456  0.00000000       0.002
   0.67811528  0.67811528  0.00000000       0.002
   0.67049601  0.67049601  0.00000000       0.002
   0.66287674  0.66287674  0.00000000       0.002
   0.65525746  0.65525746  0.00000000       0.002
   0.64763819  0.64763819  0.00000000       0.002
   0.64001892  0.64001892  0.00000000       0.002
   0.63239965  0.63239965  0.00000000       0.002
   0.62478037  0.62478037  0.00000000       0.002
   0.61716110  0.61716110  0.00000000       0.002
   0.60954183  0.60954183  0.00000000       0.002
   0.60192255  0.60192255  0.00000000       0.002
   0.59430328  0.59430328  0.00000000       0.002
   0.58668401  0.58668401  0.00000000       0.002
   0.57906474  0.57906474  0.00000000       0.002
   0.57144546  0.57144546  0.00000000       0.002
   0.56382619  0.56382619  0.00000000       0.002
   0.55620692  0.55620692  0.00000000       0.002
   0.54858764  0.54858764  0.00000000       0.002
   0.54096837  0.54096837  0.00000000       0.002
   0.53334910  0.53334910  0.00000000       0.002
   0.52572983  0.52572983  0.00000000       0.002
   0.51811055  0.51811055  0.00000000       0.002
   0.51049128  0.51049128  0.00000000       0.002
   0.50287201  0.50287201  0.00000000       0.002
   0.49525274  0.49525274  0.00000000       0.002
   0.48763346  0.48763346  0.00000000       0.002
   0.48001419  0.48001419  0.00000000       0.002
   0.47239492  0.47239492  0.00000000       0.002
   0.46477564  0.46477564  0.00000000       0.002
   0.45715637  0.45715637  0.00000000       0.002
   0.44953710  0.44953710  0.00000000       0.002
   0.44191783  0.44191783  0.00000000       0.002
   0.43429855  0.43429855  0.00000000       0.002
   0.42667928  0.42667928  0.00000000       0.002
   0.41906001  0.41906001  0.00000000       0.002
   0.41144073  0.41144073  0.00000000       0.002
   0.40382146  0.40382146  0.00000000       0.002
   0.39620219  0.39620219  0.00000000       0.002
   0.38858292  0.38858292  0.00000000       0.002
   0.38096364  0.38096364  0.00000000       0.002
   0.37334437  0.37334437  0.00000000       0.002
   0.36572510  0.36572510  0.00000000       0.002
   0.35810582  0.35810582  0.00000000       0.002
   0.35048655  0.35048655  0.00000000       0.002
   0.34286728  0.34286728  0.00000000       0.002
   0.33524801  0.33524801  0.00000000       0.002
   0.32762873  0.32762873  0.00000000       0.002
   0.32000946  0.32000946  0.00000000       0.002
   0.31239019  0.31239019  0.00000000       0.002
   0.30477091  0.30477091  0.00000000       0.002
   0.29715164  0.29715164  0.00000000       0.002
   0.28953237  0.28953237  0.00000000       0.002
   0.28191310  0.28191310  0.00000000       0.002
   0.27429382  0.27429382  0.00000000       0.002
   0.26667455  0.26667455  0.00000000       0.002
   0.25905528  0.25905528  0.00000000       0.002
   0.25143600  0.25143600  0.00000000       0.002
   0.24381673  0.24381673  0.00000000       0.002
   0.23619746  0.23619746  0.00000000       0.002
   0.22857819  0.22857819  0.00000000       0.002
   0.22095891  0.22095891  0.00000000       0.002
   0.21333964  0.21333964  0.00000000       0.002
   0.20572037  0.20572037  0.00000000       0.002
   0.19810109  0.19810109  0.00000000       0.002
   0.19048182  0.19048182  0.00000000       0.002
   0.18286255  0.18286255  0.00000000       0.002
   0.17524328  0.17524328  0.00000000       0.002
   0.16762400  0.16762400  0.00000000       0.002
   0.16000473  0.16000473  0.00000000       0.002
   0.15238546  0.15238546  0.00000000       0.002
   0.14476618  0.14476618  0.00000000       0.002
   0.13714691  0.13714691  0.00000000       0.002
   0.12952764  0.12952764  0.00000000       0.002
   0.12190837  0.12190837  0.00000000       0.002
   0.11428909  0.11428909  0.00000000       0.002
   0.10666982  0.10666982  0.00000000       0.002
   0.09905055  0.09905055  0.00000000       0.002
   0.09143127  0.09143127  0.00000000       0.002
   0.08381200  0.08381200  0.00000000       0.002
   0.07619273  0.07619273  0.00000000       0.002
   0.06857346  0.06857346  0.00000000       0.002
   0.06095418  0.06095418  0.00000000       0.002
   0.05333491  0.05333491  0.00000000       0.002
   0.04571564  0.04571564  0.00000000       0.002
   0.03809636  0.03809636  0.00000000       0.002
   0.03047709  0.03047709  0.00000000       0.002
   0.02285782  0.02285782  0.00000000       0.002
   0.01523855  0.01523855  0.00000000       0.002
   0.00761927  0.00761927  0.00000000       0.002
   0.00000000  0.00000000  0.00000000       0.002
   0.00000000  0.00000000  0.00000000       0.002
   0.00507952  0.00507952  0.00507952       0.002
   0.01015903  0.01015903  0.01015903       0.002
   0.01523855  0.01523855  0.01523855       0.002
   0.02031806  0.02031806  0.02031806       0.002
   0.02539758  0.02539758  0.02539758       0.002
   0.03047709  0.03047709  0.03047709       0.002
   0.03555661  0.03555661  0.03555661       0.002
   0.04063612  0.04063612  0.04063612       0.002
   0.04571564  0.04571564  0.04571564       0.002
   0.05079515  0.05079515  0.05079515       0.002
   0.05587467  0.05587467  0.05587467       0.002
   0.06095418  0.06095418  0.06095418       0.002
   0.06603370  0.06603370  0.06603370       0.002
   0.07111321  0.07111321  0.07111321       0.002
   0.07619273  0.07619273  0.07619273       0.002
   0.08127224  0.08127224  0.08127224       0.002
   0.08635176  0.08635176  0.08635176       0.002
   0.09143127  0.09143127  0.09143127       0.002
   0.09651079  0.09651079  0.09651079       0.002
   0.10159030  0.10159030  0.10159030       0.002
   0.10666982  0.10666982  0.10666982       0.002
   0.11174934  0.11174934  0.11174934       0.002
   0.11682885  0.11682885  0.11682885       0.002
   0.12190837  0.12190837  0.12190837       0.002
   0.12698788  0.12698788  0.12698788       0.002
   0.13206740  0.13206740  0.13206740       0.002
   0.13714691  0.13714691  0.13714691       0.002
   0.14222643  0.14222643  0.14222643       0.002
   0.14730594  0.14730594  0.14730594       0.002
   0.15238546  0.15238546  0.15238546       0.002
   0.15746497  0.15746497  0.15746497       0.002
   0.16254449  0.16254449  0.16254449       0.002
   0.16762400  0.16762400  0.16762400       0.002
   0.17270352  0.17270352  0.17270352       0.002
   0.17778303  0.17778303  0.17778303       0.002
   0.18286255  0.18286255  0.18286255       0.002
   0.18794206  0.18794206  0.18794206       0.002
   0.19302158  0.19302158  0.19302158       0.002
   0.19810109  0.19810109  0.19810109       0.002
   0.20318061  0.20318061  0.20318061       0.002
   0.20826012  0.20826012  0.20826012       0.002
   0.21333964  0.21333964  0.21333964       0.002
   0.21841915  0.21841915  0.21841915       0.002
   0.22349867  0.22349867  0.22349867       0.002
   0.22857819  0.22857819  0.22857819       0.002
   0.23365770  0.23365770  0.23365770       0.002
   0.23873722  0.23873722  0.23873722       0.002
   0.24381673  0.24381673  0.24381673       0.002
   0.24889625  0.24889625  0.24889625       0.002
   0.25397576  0.25397576  0.25397576       0.002
   0.25905528  0.25905528  0.25905528       0.002
   0.26413479  0.26413479  0.26413479       0.002
   0.26921431  0.26921431  0.26921431       0.002
   0.27429382  0.27429382  0.27429382       0.002
   0.27937334  0.27937334  0.27937334       0.002
   0.28445285  0.28445285  0.28445285       0.002
   0.28953237  0.28953237  0.28953237       0.002
   0.29461188  0.29461188  0.29461188       0.002
   0.29969140  0.29969140  0.29969140       0.002
   0.30477091  0.30477091  0.30477091       0.002
   0.30985043  0.30985043  0.30985043       0.002
   0.31492994  0.31492994  0.31492994       0.002
   0.32000946  0.32000946  0.32000946       0.002
   0.32508897  0.32508897  0.32508897       0.002
   0.33016849  0.33016849  0.33016849       0.002
   0.33524801  0.33524801  0.33524801       0.002
   0.34032752  0.34032752  0.34032752       0.002
   0.34540704  0.34540704  0.34540704       0.002
   0.35048655  0.35048655  0.35048655       0.002
   0.35556607  0.35556607  0.35556607       0.002
   0.36064558  0.36064558  0.36064558       0.002
   0.36572510  0.36572510  0.36572510       0.002
   0.37080461  0.37080461  0.37080461       0.002
   0.37588413  0.37588413  0.37588413       0.002
   0.38096364  0.38096364  0.38096364       0.002
   0.38604316  0.38604316  0.38604316       0.002
   0.39112267  0.39112267  0.39112267       0.002
   0.39620219  0.39620219  0.39620219       0.002
   0.40128170  0.40128170  0.40128170       0.002
   0.40636122  0.40636122  0.40636122       0.002
   0.41144073  0.41144073  0.41144073       0.002
   0.41652025  0.41652025  0.41652025       0.002
   0.42159976  0.42159976  0.42159976       0.002
   0.42667928  0.42667928  0.42667928       0.002
   0.43175879  0.43175879  0.43175879       0.002
   0.43683831  0.43683831  0.43683831       0.002
   0.44191783  0.44191783  0.44191783       0.002
   0.44699734  0.44699734  0.44699734       0.002
   0.45207686  0.45207686  0.45207686       0.002
   0.45715637  0.45715637  0.45715637       0.002
   0.46223589  0.46223589  0.46223589       0.002
   0.46731540  0.46731540  0.46731540       0.002
   0.47239492  0.47239492  0.47239492       0.002
   0.47747443  0.47747443  0.47747443       0.002
   0.48255395  0.48255395  0.48255395       0.002
   0.48763346  0.48763346  0.48763346       0.002
   0.49271298  0.49271298  0.49271298       0.002
   0.49779249  0.49779249  0.49779249       0.002
   0.50287201  0.50287201  0.50287201       0.002
   0.50287201  0.50287201  0.50287201       0.002
   0.50287201  0.50795152  0.49779249       0.002
   0.50287201  0.51303104  0.49271298       0.002
   0.50287201  0.51811055  0.48763346       0.002
   0.50287201  0.52319007  0.48255395       0.002
   0.50287201  0.52826958  0.47747443       0.002
   0.50287201  0.53334910  0.47239492       0.002
   0.50287201  0.53842861  0.46731540       0.002
   0.50287201  0.54350813  0.46223589       0.002
   0.50287201  0.54858764  0.45715637       0.002
   0.50287201  0.55366716  0.45207686       0.002
   0.50287201  0.55874668  0.44699734       0.002
   0.50287201  0.56382619  0.44191783       0.002
   0.50287201  0.56890571  0.43683831       0.002
   0.50287201  0.57398522  0.43175879       0.002
   0.50287201  0.57906474  0.42667928       0.002
   0.50287201  0.58414425  0.42159976       0.002
   0.50287201  0.58922377  0.41652025       0.002
   0.50287201  0.59430328  0.41144073       0.002
   0.50287201  0.59938280  0.40636122       0.002
   0.50287201  0.60446231  0.40128170       0.002
   0.50287201  0.60954183  0.39620219       0.002
   0.50287201  0.61462134  0.39112267       0.002
   0.50287201  0.61970086  0.38604316       0.002
   0.50287201  0.62478037  0.38096364       0.002
   0.50287201  0.62985989  0.37588413       0.002
   0.50287201  0.63493940  0.37080461       0.002
   0.50287201  0.64001892  0.36572510       0.002
   0.50287201  0.64509843  0.36064558       0.002
   0.50287201  0.65017795  0.35556607       0.002
   0.50287201  0.65525746  0.35048655       0.002
   0.50287201  0.66033698  0.34540704       0.002
   0.50287201  0.66541650  0.34032752       0.002
   0.50287201  0.67049601  0.33524801       0.002
   0.50287201  0.67557553  0.33016849       0.002
   0.50287201  0.68065504  0.32508897       0.002
   0.50287201  0.68573456  0.32000946       0.002
   0.50287201  0.69081407  0.31492994       0.002
   0.50287201  0.69589359  0.30985043       0.002
   0.50287201  0.70097310  0.30477091       0.002
   0.50287201  0.70605262  0.29969140       0.002
   0.50287201  0.71113213  0.29461188       0.002
   0.50287201  0.71621165  0.28953237       0.002
   0.50287201  0.72129116  0.28445285       0.002
   0.50287201  0.72637068  0.27937334       0.002
   0.50287201  0.73145019  0.27429382       0.002
   0.50287201  0.73652971  0.26921431       0.002
   0.50287201  0.74160922  0.26413479       0.002
   0.50287201  0.74668874  0.25905528       0.002
   0.50287201  0.75176825  0.25397576       0.002
   0.50287201  0.75684777  0.24889625       0.002
   0.50287201  0.76192728  0.24381673       0.002
   0.50287201  0.76700680  0.23873722       0.002
   0.50287201  0.77208632  0.23365770       0.002
   0.50287201  0.77716583  0.22857819       0.002
   0.50287201  0.78224535  0.22349867       0.002
   0.50287201  0.78732486  0.21841915       0.002
   0.50287201  0.79240438  0.21333964       0.002
   0.50287201  0.79748389  0.20826012       0.002
   0.50287201  0.80256341  0.20318061       0.002
   0.50287201  0.80764292  0.19810109       0.002
   0.50287201  0.81272244  0.19302158       0.002
   0.50287201  0.81780195  0.18794206       0.002
   0.50287201  0.82288147  0.18286255       0.002
   0.50287201  0.82796098  0.17778303       0.002
   0.50287201  0.83304050  0.17270352       0.002
   0.50287201  0.83812001  0.16762400       0.002
   0.50287201  0.84319953  0.16254449       0.002
   0.50287201  0.84827904  0.15746497       0.002
   0.50287201  0.85335856  0.15238546       0.002
   0.50287201  0.85843807  0.14730594       0.002
   0.50287201  0.86351759  0.14222643       0.002
   0.50287201  0.86859710  0.13714691       0.002
   0.50287201  0.87367662  0.13206740       0.002
   0.50287201  0.87875613  0.12698788       0.002
   0.50287201  0.88383565  0.12190837       0.002
   0.50287201  0.88891517  0.11682885       0.002
   0.50287201  0.89399468  0.11174934       0.002
   0.50287201  0.89907420  0.10666982       0.002
   0.50287201  0.90415371  0.10159030       0.002
   0.50287201  0.90923323  0.09651079       0.002
   0.50287201  0.91431274  0.09143127       0.002
   0.50287201  0.91939226  0.08635176       0.002
   0.50287201  0.92447177  0.08127224       0.002
   0.50287201  0.92955129  0.07619273       0.002
   0.50287201  0.93463080  0.07111321       0.002
   0.50287201  0.93971032  0.06603370       0.002
   0.50287201  0.94478983  0.06095418       0.002
   0.50287201  0.94986935  0.05587467       0.002
   0.50287201  0.95494886  0.05079515       0.002
   0.50287201  0.96002838  0.04571564       0.002
   0.50287201  0.96510789  0.04063612       0.002
   0.50287201  0.97018741  0.03555661       0.002
   0.50287201  0.97526692  0.03047709       0.002
   0.50287201  0.98034644  0.02539758       0.002
   0.50287201  0.98542595  0.02031806       0.002
   0.50287201  0.99050547  0.01523855       0.002
   0.50287201  0.99558499  0.01015903       0.002
   0.50287201  1.00066450  0.00507952       0.002
   0.50287201  1.00574402  0.00000000       0.002
   0.50287201  1.00574402  0.00000000       0.002
   0.49779249  1.00574402  0.00000000       0.002
   0.49271298  1.00574402  0.00000000       0.002
   0.48763346  1.00574402  0.00000000       0.002
   0.48255395  1.00574402  0.00000000       0.002
   0.47747443  1.00574402  0.00000000       0.002
   0.47239492  1.00574402  0.00000000       0.002
   0.46731540  1.00574402  0.00000000       0.002
   0.46223589  1.00574402  0.00000000       0.002
   0.45715637  1.00574402  0.00000000       0.002
   0.45207686  1.00574402  0.00000000       0.002
   0.44699734  1.00574402  0.00000000       0.002
   0.44191783  1.00574402  0.00000000       0.002
   0.43683831  1.00574402  0.00000000       0.002
   0.43175879  1.00574402  0.00000000       0.002
   0.42667928  1.00574402  0.00000000       0.002
   0.42159976  1.00574402  0.00000000       0.002
   0.41652025  1.00574402  0.00000000       0.002
   0.41144073  1.00574402  0.00000000       0.002
   0.40636122  1.00574402  0.00000000       0.002
   0.40128170  1.00574402  0.00000000       0.002
   0.39620219  1.00574402  0.00000000       0.002
   0.39112267  1.00574402  0.00000000       0.002
   0.38604316  1.00574402  0.00000000       0.002
   0.38096364  1.00574402  0.00000000       0.002
   0.37588413  1.00574402  0.00000000       0.002
   0.37080461  1.00574402  0.00000000       0.002
   0.36572510  1.00574402  0.00000000       0.002
   0.36064558  1.00574402  0.00000000       0.002
   0.35556607  1.00574402  0.00000000       0.002
   0.35048655  1.00574402  0.00000000       0.002
   0.34540704  1.00574402  0.00000000       0.002
   0.34032752  1.00574402 -0.00000000       0.002
   0.33524801  1.00574402  0.00000000       0.002
   0.33016849  1.00574402  0.00000000       0.002
   0.32508897  1.00574402  0.00000000       0.002
   0.32000946  1.00574402  0.00000000       0.002
   0.31492994  1.00574402  0.00000000       0.002
   0.30985043  1.00574402  0.00000000       0.002
   0.30477091  1.00574402 -0.00000000       0.002
   0.29969140  1.00574402 -0.00000000       0.002
   0.29461188  1.00574402  0.00000000       0.002
   0.28953237  1.00574402  0.00000000       0.002
   0.28445285  1.00574402  0.00000000       0.002
   0.27937334  1.00574402  0.00000000       0.002
   0.27429382  1.00574402  0.00000000       0.002
   0.26921431  1.00574402 -0.00000000       0.002
   0.26413479  1.00574402  0.00000000       0.002
   0.25905528  1.00574402  0.00000000       0.002
   0.25397576  1.00574402 -0.00000000       0.002
   0.24889625  1.00574402  0.00000000       0.002
   0.24381673  1.00574402  0.00000000       0.002
   0.23873722  1.00574402 -0.00000000       0.002
   0.23365770  1.00574402  0.00000000       0.002
   0.22857819  1.00574402  0.00000000       0.002
   0.22349867  1.00574402  0.00000000       0.002
   0.21841915  1.00574402  0.00000000       0.002
   0.21333964  1.00574402  0.00000000       0.002
   0.20826012  1.00574402 -0.00000000       0.002
   0.20318061  1.00574402  0.00000000       0.002
   0.19810109  1.00574402  0.00000000       0.002
   0.19302158  1.00574402  0.00000000       0.002
   0.18794206  1.00574402  0.00000000       0.002
   0.18286255  1.00574402  0.00000000       0.002
   0.17778303  1.00574402  0.00000000       0.002
   0.17270352  1.00574402  0.00000000       0.002
   0.16762400  1.00574402  0.00000000       0.002
   0.16254449  1.00574402  0.00000000       0.002
   0.15746497  1.00574402  0.00000000       0.002
   0.15238546  1.00574402  0.00000000       0.002
   0.14730594  1.00574402  0.00000000       0.002
   0.14222643  1.00574402 -0.00000000       0.002
   0.13714691  1.00574402  0.00000000       0.002
   0.13206740  1.00574402  0.00000000       0.002
   0.12698788  1.00574402  0.00000000       0.002
   0.12190837  1.00574402  0.00000000       0.002
   0.11682885  1.00574402  0.00000000       0.002
   0.11174934  1.00574402 -0.00000000       0.002
   0.10666982  1.00574402  0.00000000       0.002
   0.10159030  1.00574402  0.00000000       0.002
   0.09651079  1.00574402 -0.00000000       0.002
   0.09143127  1.00574402  0.00000000       0.002
   0.08635176  1.00574402  0.00000000       0.002
   0.08127224  1.00574402 -0.00000000       0.002
   0.07619273  1.00574402  0.00000000       0.002
   0.07111321  1.00574402 -0.00000000       0.002
   0.06603370  1.00574402 -0.00000000       0.002
   0.06095418  1.00574402  0.00000000       0.002
   0.05587467  1.00574402  0.00000000       0.002
   0.05079515  1.00574402  0.00000000       0.002
   0.04571564  1.00574402 -0.00000000       0.002
   0.04063612  1.00574402 -0.00000000       0.002
   0.03555661  1.00574402  0.00000000       0.002
   0.03047709  1.00574402  0.00000000       0.002
   0.02539758  1.00574402  0.00000000       0.002
   0.02031806  1.00574402  0.00000000       0.002
   0.01523855  1.00574402  0.00000000       0.002
   0.01015903  1.00574402  0.00000000       0.002
   0.00507952  1.00574402  0.00000000       0.002
   0.00000000  1.00574402  0.00000000       0.002
 
 k-points in reciprocal lattice and weights: kpoints for bandstructure GAMMA-X-U|K-GA
   0.00000000  0.00000000  0.00000000       0.002
   0.00505051  0.00000000  0.00505051       0.002
   0.01010101  0.00000000  0.01010101       0.002
   0.01515152  0.00000000  0.01515152       0.002
   0.02020202  0.00000000  0.02020202       0.002
   0.02525253  0.00000000  0.02525253       0.002
   0.03030303  0.00000000  0.03030303       0.002
   0.03535354  0.00000000  0.03535354       0.002
   0.04040404  0.00000000  0.04040404       0.002
   0.04545455  0.00000000  0.04545455       0.002
   0.05050505  0.00000000  0.05050505       0.002
   0.05555556  0.00000000  0.05555556       0.002
   0.06060606  0.00000000  0.06060606       0.002
   0.06565657  0.00000000  0.06565657       0.002
   0.07070707  0.00000000  0.07070707       0.002
   0.07575758  0.00000000  0.07575758       0.002
   0.08080808  0.00000000  0.08080808       0.002
   0.08585859  0.00000000  0.08585859       0.002
   0.09090909  0.00000000  0.09090909       0.002
   0.09595960  0.00000000  0.09595960       0.002
   0.10101010  0.00000000  0.10101010       0.002
   0.10606061  0.00000000  0.10606061       0.002
   0.11111111  0.00000000  0.11111111       0.002
   0.11616162  0.00000000  0.11616162       0.002
   0.12121212  0.00000000  0.12121212       0.002
   0.12626263  0.00000000  0.12626263       0.002
   0.13131313  0.00000000  0.13131313       0.002
   0.13636364  0.00000000  0.13636364       0.002
   0.14141414  0.00000000  0.14141414       0.002
   0.14646465  0.00000000  0.14646465       0.002
   0.15151515  0.00000000  0.15151515       0.002
   0.15656566  0.00000000  0.15656566       0.002
   0.16161616  0.00000000  0.16161616       0.002
   0.16666667  0.00000000  0.16666667       0.002
   0.17171717  0.00000000  0.17171717       0.002
   0.17676768  0.00000000  0.17676768       0.002
   0.18181818  0.00000000  0.18181818       0.002
   0.18686869  0.00000000  0.18686869       0.002
   0.19191919  0.00000000  0.19191919       0.002
   0.19696970  0.00000000  0.19696970       0.002
   0.20202020  0.00000000  0.20202020       0.002
   0.20707071  0.00000000  0.20707071       0.002
   0.21212121  0.00000000  0.21212121       0.002
   0.21717172  0.00000000  0.21717172       0.002
   0.22222222  0.00000000  0.22222222       0.002
   0.22727273  0.00000000  0.22727273       0.002
   0.23232323  0.00000000  0.23232323       0.002
   0.23737374  0.00000000  0.23737374       0.002
   0.24242424  0.00000000  0.24242424       0.002
   0.24747475  0.00000000  0.24747475       0.002
   0.25252525  0.00000000  0.25252525       0.002
   0.25757576  0.00000000  0.25757576       0.002
   0.26262626  0.00000000  0.26262626       0.002
   0.26767677  0.00000000  0.26767677       0.002
   0.27272727  0.00000000  0.27272727       0.002
   0.27777778  0.00000000  0.27777778       0.002
   0.28282828  0.00000000  0.28282828       0.002
   0.28787879  0.00000000  0.28787879       0.002
   0.29292929  0.00000000  0.29292929       0.002
   0.29797980  0.00000000  0.29797980       0.002
   0.30303030  0.00000000  0.30303030       0.002
   0.30808081  0.00000000  0.30808081       0.002
   0.31313131  0.00000000  0.31313131       0.002
   0.31818182  0.00000000  0.31818182       0.002
   0.32323232  0.00000000  0.32323232       0.002
   0.32828283  0.00000000  0.32828283       0.002
   0.33333333  0.00000000  0.33333333       0.002
   0.33838384  0.00000000  0.33838384       0.002
   0.34343434  0.00000000  0.34343434       0.002
   0.34848485  0.00000000  0.34848485       0.002
   0.35353535  0.00000000  0.35353535       0.002
   0.35858586  0.00000000  0.35858586       0.002
   0.36363636  0.00000000  0.36363636       0.002
   0.36868687  0.00000000  0.36868687       0.002
   0.37373737  0.00000000  0.37373737       0.002
   0.37878788  0.00000000  0.37878788       0.002
   0.38383838  0.00000000  0.38383838       0.002
   0.38888889  0.00000000  0.38888889       0.002
   0.39393939  0.00000000  0.39393939       0.002
   0.39898990  0.00000000  0.39898990       0.002
   0.40404040  0.00000000  0.40404040       0.002
   0.40909091  0.00000000  0.40909091       0.002
   0.41414141  0.00000000  0.41414141       0.002
   0.41919192  0.00000000  0.41919192       0.002
   0.42424242  0.00000000  0.42424242       0.002
   0.42929293  0.00000000  0.42929293       0.002
   0.43434343  0.00000000  0.43434343       0.002
   0.43939394  0.00000000  0.43939394       0.002
   0.44444444  0.00000000  0.44444444       0.002
   0.44949495  0.00000000  0.44949495       0.002
   0.45454545  0.00000000  0.45454545       0.002
   0.45959596  0.00000000  0.45959596       0.002
   0.46464646  0.00000000  0.46464646       0.002
   0.46969697  0.00000000  0.46969697       0.002
   0.47474747  0.00000000  0.47474747       0.002
   0.47979798  0.00000000  0.47979798       0.002
   0.48484848  0.00000000  0.48484848       0.002
   0.48989899  0.00000000  0.48989899       0.002
   0.49494949  0.00000000  0.49494949       0.002
   0.50000000  0.00000000  0.50000000       0.002
   0.50000000  0.00000000  0.50000000       0.002
   0.50126263  0.00252525  0.50126263       0.002
   0.50252525  0.00505051  0.50252525       0.002
   0.50378788  0.00757576  0.50378788       0.002
   0.50505051  0.01010101  0.50505051       0.002
   0.50631313  0.01262626  0.50631313       0.002
   0.50757576  0.01515152  0.50757576       0.002
   0.50883838  0.01767677  0.50883838       0.002
   0.51010101  0.02020202  0.51010101       0.002
   0.51136364  0.02272727  0.51136364       0.002
   0.51262626  0.02525253  0.51262626       0.002
   0.51388889  0.02777778  0.51388889       0.002
   0.51515152  0.03030303  0.51515152       0.002
   0.51641414  0.03282828  0.51641414       0.002
   0.51767677  0.03535354  0.51767677       0.002
   0.51893939  0.03787879  0.51893939       0.002
   0.52020202  0.04040404  0.52020202       0.002
   0.52146465  0.04292929  0.52146465       0.002
   0.52272727  0.04545455  0.52272727       0.002
   0.52398990  0.04797980  0.52398990       0.002
   0.52525253  0.05050505  0.52525253       0.002
   0.52651515  0.05303030  0.52651515       0.002
   0.52777778  0.05555556  0.52777778       0.002
   0.52904040  0.05808081  0.52904040       0.002
   0.53030303  0.06060606  0.53030303       0.002
   0.53156566  0.06313131  0.53156566       0.002
   0.53282828  0.06565657  0.53282828       0.002
   0.53409091  0.06818182  0.53409091       0.002
   0.53535354  0.07070707  0.53535354       0.002
   0.53661616  0.07323232  0.53661616       0.002
   0.53787879  0.07575758  0.53787879       0.002
   0.53914141  0.07828283  0.53914141       0.002
   0.54040404  0.08080808  0.54040404       0.002
   0.54166667  0.08333333  0.54166667       0.002
   0.54292929  0.08585859  0.54292929       0.002
   0.54419192  0.08838384  0.54419192       0.002
   0.54545455  0.09090909  0.54545455       0.002
   0.54671717  0.09343434  0.54671717       0.002
   0.54797980  0.09595960  0.54797980       0.002
   0.54924242  0.09848485  0.54924242       0.002
   0.55050505  0.10101010  0.55050505       0.002
   0.55176768  0.10353535  0.55176768       0.002
   0.55303030  0.10606061  0.55303030       0.002
   0.55429293  0.10858586  0.55429293       0.002
   0.55555556  0.11111111  0.55555556       0.002
   0.55681818  0.11363636  0.55681818       0.002
   0.55808081  0.11616162  0.55808081       0.002
   0.55934343  0.11868687  0.55934343       0.002
   0.56060606  0.12121212  0.56060606       0.002
   0.56186869  0.12373737  0.56186869       0.002
   0.56313131  0.12626263  0.56313131       0.002
   0.56439394  0.12878788  0.56439394       0.002
   0.56565657  0.13131313  0.56565657       0.002
   0.56691919  0.13383838  0.56691919       0.002
   0.56818182  0.13636364  0.56818182       0.002
   0.56944444  0.13888889  0.56944444       0.002
   0.57070707  0.14141414  0.57070707       0.002
   0.57196970  0.14393939  0.57196970       0.002
   0.57323232  0.14646465  0.57323232       0.002
   0.57449495  0.14898990  0.57449495       0.002
   0.57575758  0.15151515  0.57575758       0.002
   0.57702020  0.15404040  0.57702020       0.002
   0.57828283  0.15656566  0.57828283       0.002
   0.57954545  0.15909091  0.57954545       0.002
   0.58080808  0.16161616  0.58080808       0.002
   0.58207071  0.16414141  0.58207071       0.002
   0.58333333  0.16666667  0.58333333       0.002
   0.58459596  0.16919192  0.58459596       0.002
   0.58585859  0.17171717  0.58585859       0.002
   0.58712121  0.17424242  0.58712121       0.002
   0.58838384  0.17676768  0.58838384       0.002
   0.58964646  0.17929293  0.58964646       0.002
   0.59090909  0.18181818  0.59090909       0.002
   0.59217172  0.18434343  0.59217172       0.002
   0.59343434  0.18686869  0.59343434       0.002
   0.59469697  0.18939394  0.59469697       0.002
   0.59595960  0.19191919  0.59595960       0.002
   0.59722222  0.19444444  0.59722222       0.002
   0.59848485  0.19696970  0.59848485       0.002
   0.59974747  0.19949495  0.59974747       0.002
   0.60101010  0.20202020  0.60101010       0.002
   0.60227273  0.20454545  0.60227273       0.002
   0.60353535  0.20707071  0.60353535       0.002
   0.60479798  0.20959596  0.60479798       0.002
   0.60606061  0.21212121  0.60606061       0.002
   0.60732323  0.21464646  0.60732323       0.002
   0.60858586  0.21717172  0.60858586       0.002
   0.60984848  0.21969697  0.60984848       0.002
   0.61111111  0.22222222  0.61111111       0.002
   0.61237374  0.22474747  0.61237374       0.002
   0.61363636  0.22727273  0.61363636       0.002
   0.61489899  0.22979798  0.61489899       0.002
   0.61616162  0.23232323  0.61616162       0.002
   0.61742424  0.23484848  0.61742424       0.002
   0.61868687  0.23737374  0.61868687       0.002
   0.61994949  0.23989899  0.61994949       0.002
   0.62121212  0.24242424  0.62121212       0.002
   0.62247475  0.24494949  0.62247475       0.002
   0.62373737  0.24747475  0.62373737       0.002
   0.62500000  0.25000000  0.62500000       0.002
   0.37500000  0.37500000  0.75000000       0.002
   0.37121212  0.37121212  0.74242424       0.002
   0.36742424  0.36742424  0.73484848       0.002
   0.36363636  0.36363636  0.72727273       0.002
   0.35984848  0.35984848  0.71969697       0.002
   0.35606061  0.35606061  0.71212121       0.002
   0.35227273  0.35227273  0.70454545       0.002
   0.34848485  0.34848485  0.69696970       0.002
   0.34469697  0.34469697  0.68939394       0.002
   0.34090909  0.34090909  0.68181818       0.002
   0.33712121  0.33712121  0.67424242       0.002
   0.33333333  0.33333333  0.66666667       0.002
   0.32954545  0.32954545  0.65909091       0.002
   0.32575758  0.32575758  0.65151515       0.002
   0.32196970  0.32196970  0.64393939       0.002
   0.31818182  0.31818182  0.63636364       0.002
   0.31439394  0.31439394  0.62878788       0.002
   0.31060606  0.31060606  0.62121212       0.002
   0.30681818  0.30681818  0.61363636       0.002
   0.30303030  0.30303030  0.60606061       0.002
   0.29924242  0.29924242  0.59848485       0.002
   0.29545455  0.29545455  0.59090909       0.002
   0.29166667  0.29166667  0.58333333       0.002
   0.28787879  0.28787879  0.57575758       0.002
   0.28409091  0.28409091  0.56818182       0.002
   0.28030303  0.28030303  0.56060606       0.002
   0.27651515  0.27651515  0.55303030       0.002
   0.27272727  0.27272727  0.54545455       0.002
   0.26893939  0.26893939  0.53787879       0.002
   0.26515152  0.26515152  0.53030303       0.002
   0.26136364  0.26136364  0.52272727       0.002
   0.25757576  0.25757576  0.51515152       0.002
   0.25378788  0.25378788  0.50757576       0.002
   0.25000000  0.25000000  0.50000000       0.002
   0.24621212  0.24621212  0.49242424       0.002
   0.24242424  0.24242424  0.48484848       0.002
   0.23863636  0.23863636  0.47727273       0.002
   0.23484848  0.23484848  0.46969697       0.002
   0.23106061  0.23106061  0.46212121       0.002
   0.22727273  0.22727273  0.45454545       0.002
   0.22348485  0.22348485  0.44696970       0.002
   0.21969697  0.21969697  0.43939394       0.002
   0.21590909  0.21590909  0.43181818       0.002
   0.21212121  0.21212121  0.42424242       0.002
   0.20833333  0.20833333  0.41666667       0.002
   0.20454545  0.20454545  0.40909091       0.002
   0.20075758  0.20075758  0.40151515       0.002
   0.19696970  0.19696970  0.39393939       0.002
   0.19318182  0.19318182  0.38636364       0.002
   0.18939394  0.18939394  0.37878788       0.002
   0.18560606  0.18560606  0.37121212       0.002
   0.18181818  0.18181818  0.36363636       0.002
   0.17803030  0.17803030  0.35606061       0.002
   0.17424242  0.17424242  0.34848485       0.002
   0.17045455  0.17045455  0.34090909       0.002
   0.16666667  0.16666667  0.33333333       0.002
   0.16287879  0.16287879  0.32575758       0.002
   0.15909091  0.15909091  0.31818182       0.002
   0.15530303  0.15530303  0.31060606       0.002
   0.15151515  0.15151515  0.30303030       0.002
   0.14772727  0.14772727  0.29545455       0.002
   0.14393939  0.14393939  0.28787879       0.002
   0.14015152  0.14015152  0.28030303       0.002
   0.13636364  0.13636364  0.27272727       0.002
   0.13257576  0.13257576  0.26515152       0.002
   0.12878788  0.12878788  0.25757576       0.002
   0.12500000  0.12500000  0.25000000       0.002
   0.12121212  0.12121212  0.24242424       0.002
   0.11742424  0.11742424  0.23484848       0.002
   0.11363636  0.11363636  0.22727273       0.002
   0.10984848  0.10984848  0.21969697       0.002
   0.10606061  0.10606061  0.21212121       0.002
   0.10227273  0.10227273  0.20454545       0.002
   0.09848485  0.09848485  0.19696970       0.002
   0.09469697  0.09469697  0.18939394       0.002
   0.09090909  0.09090909  0.18181818       0.002
   0.08712121  0.08712121  0.17424242       0.002
   0.08333333  0.08333333  0.16666667       0.002
   0.07954545  0.07954545  0.15909091       0.002
   0.07575758  0.07575758  0.15151515       0.002
   0.07196970  0.07196970  0.14393939       0.002
   0.06818182  0.06818182  0.13636364       0.002
   0.06439394  0.06439394  0.12878788       0.002
   0.06060606  0.06060606  0.12121212       0.002
   0.05681818  0.05681818  0.11363636       0.002
   0.05303030  0.05303030  0.10606061       0.002
   0.04924242  0.04924242  0.09848485       0.002
   0.04545455  0.04545455  0.09090909       0.002
   0.04166667  0.04166667  0.08333333       0.002
   0.03787879  0.03787879  0.07575758       0.002
   0.03409091  0.03409091  0.06818182       0.002
   0.03030303  0.03030303  0.06060606       0.002
   0.02651515  0.02651515  0.05303030       0.002
   0.02272727  0.02272727  0.04545455       0.002
   0.01893939  0.01893939  0.03787879       0.002
   0.01515152  0.01515152  0.03030303       0.002
   0.01136364  0.01136364  0.02272727       0.002
   0.00757576  0.00757576  0.01515152       0.002
   0.00378788  0.00378788  0.00757576       0.002
   0.00000000  0.00000000  0.00000000       0.002
   0.00000000  0.00000000  0.00000000       0.002
   0.00505051  0.00505051  0.00505051       0.002
   0.01010101  0.01010101  0.01010101       0.002
   0.01515152  0.01515152  0.01515152       0.002
   0.02020202  0.02020202  0.02020202       0.002
   0.02525253  0.02525253  0.02525253       0.002
   0.03030303  0.03030303  0.03030303       0.002
   0.03535354  0.03535354  0.03535354       0.002
   0.04040404  0.04040404  0.04040404       0.002
   0.04545455  0.04545455  0.04545455       0.002
   0.05050505  0.05050505  0.05050505       0.002
   0.05555556  0.05555556  0.05555556       0.002
   0.06060606  0.06060606  0.06060606       0.002
   0.06565657  0.06565657  0.06565657       0.002
   0.07070707  0.07070707  0.07070707       0.002
   0.07575758  0.07575758  0.07575758       0.002
   0.08080808  0.08080808  0.08080808       0.002
   0.08585859  0.08585859  0.08585859       0.002
   0.09090909  0.09090909  0.09090909       0.002
   0.09595960  0.09595960  0.09595960       0.002
   0.10101010  0.10101010  0.10101010       0.002
   0.10606061  0.10606061  0.10606061       0.002
   0.11111111  0.11111111  0.11111111       0.002
   0.11616162  0.11616162  0.11616162       0.002
   0.12121212  0.12121212  0.12121212       0.002
   0.12626263  0.12626263  0.12626263       0.002
   0.13131313  0.13131313  0.13131313       0.002
   0.13636364  0.13636364  0.13636364       0.002
   0.14141414  0.14141414  0.14141414       0.002
   0.14646465  0.14646465  0.14646465       0.002
   0.15151515  0.15151515  0.15151515       0.002
   0.15656566  0.15656566  0.15656566       0.002
   0.16161616  0.16161616  0.16161616       0.002
   0.16666667  0.16666667  0.16666667       0.002
   0.17171717  0.17171717  0.17171717       0.002
   0.17676768  0.17676768  0.17676768       0.002
   0.18181818  0.18181818  0.18181818       0.002
   0.18686869  0.18686869  0.18686869       0.002
   0.19191919  0.19191919  0.19191919       0.002
   0.19696970  0.19696970  0.19696970       0.002
   0.20202020  0.20202020  0.20202020       0.002
   0.20707071  0.20707071  0.20707071       0.002
   0.21212121  0.21212121  0.21212121       0.002
   0.21717172  0.21717172  0.21717172       0.002
   0.22222222  0.22222222  0.22222222       0.002
   0.22727273  0.22727273  0.22727273       0.002
   0.23232323  0.23232323  0.23232323       0.002
   0.23737374  0.23737374  0.23737374       0.002
   0.24242424  0.24242424  0.24242424       0.002
   0.24747475  0.24747475  0.24747475       0.002
   0.25252525  0.25252525  0.25252525       0.002
   0.25757576  0.25757576  0.25757576       0.002
   0.26262626  0.26262626  0.26262626       0.002
   0.26767677  0.26767677  0.26767677       0.002
   0.27272727  0.27272727  0.27272727       0.002
   0.27777778  0.27777778  0.27777778       0.002
   0.28282828  0.28282828  0.28282828       0.002
   0.28787879  0.28787879  0.28787879       0.002
   0.29292929  0.29292929  0.29292929       0.002
   0.29797980  0.29797980  0.29797980       0.002
   0.30303030  0.30303030  0.30303030       0.002
   0.30808081  0.30808081  0.30808081       0.002
   0.31313131  0.31313131  0.31313131       0.002
   0.31818182  0.31818182  0.31818182       0.002
   0.32323232  0.32323232  0.32323232       0.002
   0.32828283  0.32828283  0.32828283       0.002
   0.33333333  0.33333333  0.33333333       0.002
   0.33838384  0.33838384  0.33838384       0.002
   0.34343434  0.34343434  0.34343434       0.002
   0.34848485  0.34848485  0.34848485       0.002
   0.35353535  0.35353535  0.35353535       0.002
   0.35858586  0.35858586  0.35858586       0.002
   0.36363636  0.36363636  0.36363636       0.002
   0.36868687  0.36868687  0.36868687       0.002
   0.37373737  0.37373737  0.37373737       0.002
   0.37878788  0.37878788  0.37878788       0.002
   0.38383838  0.38383838  0.38383838       0.002
   0.38888889  0.38888889  0.38888889       0.002
   0.39393939  0.39393939  0.39393939       0.002
   0.39898990  0.39898990  0.39898990       0.002
   0.40404040  0.40404040  0.40404040       0.002
   0.40909091  0.40909091  0.40909091       0.002
   0.41414141  0.41414141  0.41414141       0.002
   0.41919192  0.41919192  0.41919192       0.002
   0.42424242  0.42424242  0.42424242       0.002
   0.42929293  0.42929293  0.42929293       0.002
   0.43434343  0.43434343  0.43434343       0.002
   0.43939394  0.43939394  0.43939394       0.002
   0.44444444  0.44444444  0.44444444       0.002
   0.44949495  0.44949495  0.44949495       0.002
   0.45454545  0.45454545  0.45454545       0.002
   0.45959596  0.45959596  0.45959596       0.002
   0.46464646  0.46464646  0.46464646       0.002
   0.46969697  0.46969697  0.46969697       0.002
   0.47474747  0.47474747  0.47474747       0.002
   0.47979798  0.47979798  0.47979798       0.002
   0.48484848  0.48484848  0.48484848       0.002
   0.48989899  0.48989899  0.48989899       0.002
   0.49494949  0.49494949  0.49494949       0.002
   0.50000000  0.50000000  0.50000000       0.002
   0.50000000  0.50000000  0.50000000       0.002
   0.50000000  0.49747475  0.50252525       0.002
   0.50000000  0.49494949  0.50505051       0.002
   0.50000000  0.49242424  0.50757576       0.002
   0.50000000  0.48989899  0.51010101       0.002
   0.50000000  0.48737374  0.51262626       0.002
   0.50000000  0.48484848  0.51515152       0.002
   0.50000000  0.48232323  0.51767677       0.002
   0.50000000  0.47979798  0.52020202       0.002
   0.50000000  0.47727273  0.52272727       0.002
   0.50000000  0.47474747  0.52525253       0.002
   0.50000000  0.47222222  0.52777778       0.002
   0.50000000  0.46969697  0.53030303       0.002
   0.50000000  0.46717172  0.53282828       0.002
   0.50000000  0.46464646  0.53535354       0.002
   0.50000000  0.46212121  0.53787879       0.002
   0.50000000  0.45959596  0.54040404       0.002
   0.50000000  0.45707071  0.54292929       0.002
   0.50000000  0.45454545  0.54545455       0.002
   0.50000000  0.45202020  0.54797980       0.002
   0.50000000  0.44949495  0.55050505       0.002
   0.50000000  0.44696970  0.55303030       0.002
   0.50000000  0.44444444  0.55555556       0.002
   0.50000000  0.44191919  0.55808081       0.002
   0.50000000  0.43939394  0.56060606       0.002
   0.50000000  0.43686869  0.56313131       0.002
   0.50000000  0.43434343  0.56565657       0.002
   0.50000000  0.43181818  0.56818182       0.002
   0.50000000  0.42929293  0.57070707       0.002
   0.50000000  0.42676768  0.57323232       0.002
   0.50000000  0.42424242  0.57575758       0.002
   0.50000000  0.42171717  0.57828283       0.002
   0.50000000  0.41919192  0.58080808       0.002
   0.50000000  0.41666667  0.58333333       0.002
   0.50000000  0.41414141  0.58585859       0.002
   0.50000000  0.41161616  0.58838384       0.002
   0.50000000  0.40909091  0.59090909       0.002
   0.50000000  0.40656566  0.59343434       0.002
   0.50000000  0.40404040  0.59595960       0.002
   0.50000000  0.40151515  0.59848485       0.002
   0.50000000  0.39898990  0.60101010       0.002
   0.50000000  0.39646465  0.60353535       0.002
   0.50000000  0.39393939  0.60606061       0.002
   0.50000000  0.39141414  0.60858586       0.002
   0.50000000  0.38888889  0.61111111       0.002
   0.50000000  0.38636364  0.61363636       0.002
   0.50000000  0.38383838  0.61616162       0.002
   0.50000000  0.38131313  0.61868687       0.002
   0.50000000  0.37878788  0.62121212       0.002
   0.50000000  0.37626263  0.62373737       0.002
   0.50000000  0.37373737  0.62626263       0.002
   0.50000000  0.37121212  0.62878788       0.002
   0.50000000  0.36868687  0.63131313       0.002
   0.50000000  0.36616162  0.63383838       0.002
   0.50000000  0.36363636  0.63636364       0.002
   0.50000000  0.36111111  0.63888889       0.002
   0.50000000  0.35858586  0.64141414       0.002
   0.50000000  0.35606061  0.64393939       0.002
   0.50000000  0.35353535  0.64646465       0.002
   0.50000000  0.35101010  0.64898990       0.002
   0.50000000  0.34848485  0.65151515       0.002
   0.50000000  0.34595960  0.65404040       0.002
   0.50000000  0.34343434  0.65656566       0.002
   0.50000000  0.34090909  0.65909091       0.002
   0.50000000  0.33838384  0.66161616       0.002
   0.50000000  0.33585859  0.66414141       0.002
   0.50000000  0.33333333  0.66666667       0.002
   0.50000000  0.33080808  0.66919192       0.002
   0.50000000  0.32828283  0.67171717       0.002
   0.50000000  0.32575758  0.67424242       0.002
   0.50000000  0.32323232  0.67676768       0.002
   0.50000000  0.32070707  0.67929293       0.002
   0.50000000  0.31818182  0.68181818       0.002
   0.50000000  0.31565657  0.68434343       0.002
   0.50000000  0.31313131  0.68686869       0.002
   0.50000000  0.31060606  0.68939394       0.002
   0.50000000  0.30808081  0.69191919       0.002
   0.50000000  0.30555556  0.69444444       0.002
   0.50000000  0.30303030  0.69696970       0.002
   0.50000000  0.30050505  0.69949495       0.002
   0.50000000  0.29797980  0.70202020       0.002
   0.50000000  0.29545455  0.70454545       0.002
   0.50000000  0.29292929  0.70707071       0.002
   0.50000000  0.29040404  0.70959596       0.002
   0.50000000  0.28787879  0.71212121       0.002
   0.50000000  0.28535354  0.71464646       0.002
   0.50000000  0.28282828  0.71717172       0.002
   0.50000000  0.28030303  0.71969697       0.002
   0.50000000  0.27777778  0.72222222       0.002
   0.50000000  0.27525253  0.72474747       0.002
   0.50000000  0.27272727  0.72727273       0.002
   0.50000000  0.27020202  0.72979798       0.002
   0.50000000  0.26767677  0.73232323       0.002
   0.50000000  0.26515152  0.73484848       0.002
   0.50000000  0.26262626  0.73737374       0.002
   0.50000000  0.26010101  0.73989899       0.002
   0.50000000  0.25757576  0.74242424       0.002
   0.50000000  0.25505051  0.74494949       0.002
   0.50000000  0.25252525  0.74747475       0.002
   0.50000000  0.25000000  0.75000000       0.002
   0.50000000  0.25000000  0.75000000       0.002
   0.50000000  0.24747475  0.74747475       0.002
   0.50000000  0.24494949  0.74494949       0.002
   0.50000000  0.24242424  0.74242424       0.002
   0.50000000  0.23989899  0.73989899       0.002
   0.50000000  0.23737374  0.73737374       0.002
   0.50000000  0.23484848  0.73484848       0.002
   0.50000000  0.23232323  0.73232323       0.002
   0.50000000  0.22979798  0.72979798       0.002
   0.50000000  0.22727273  0.72727273       0.002
   0.50000000  0.22474747  0.72474747       0.002
   0.50000000  0.22222222  0.72222222       0.002
   0.50000000  0.21969697  0.71969697       0.002
   0.50000000  0.21717172  0.71717172       0.002
   0.50000000  0.21464646  0.71464646       0.002
   0.50000000  0.21212121  0.71212121       0.002
   0.50000000  0.20959596  0.70959596       0.002
   0.50000000  0.20707071  0.70707071       0.002
   0.50000000  0.20454545  0.70454545       0.002
   0.50000000  0.20202020  0.70202020       0.002
   0.50000000  0.19949495  0.69949495       0.002
   0.50000000  0.19696970  0.69696970       0.002
   0.50000000  0.19444444  0.69444444       0.002
   0.50000000  0.19191919  0.69191919       0.002
   0.50000000  0.18939394  0.68939394       0.002
   0.50000000  0.18686869  0.68686869       0.002
   0.50000000  0.18434343  0.68434343       0.002
   0.50000000  0.18181818  0.68181818       0.002
   0.50000000  0.17929293  0.67929293       0.002
   0.50000000  0.17676768  0.67676768       0.002
   0.50000000  0.17424242  0.67424242       0.002
   0.50000000  0.17171717  0.67171717       0.002
   0.50000000  0.16919192  0.66919192       0.002
   0.50000000  0.16666667  0.66666667       0.002
   0.50000000  0.16414141  0.66414141       0.002
   0.50000000  0.16161616  0.66161616       0.002
   0.50000000  0.15909091  0.65909091       0.002
   0.50000000  0.15656566  0.65656566       0.002
   0.50000000  0.15404040  0.65404040       0.002
   0.50000000  0.15151515  0.65151515       0.002
   0.50000000  0.14898990  0.64898990       0.002
   0.50000000  0.14646465  0.64646465       0.002
   0.50000000  0.14393939  0.64393939       0.002
   0.50000000  0.14141414  0.64141414       0.002
   0.50000000  0.13888889  0.63888889       0.002
   0.50000000  0.13636364  0.63636364       0.002
   0.50000000  0.13383838  0.63383838       0.002
   0.50000000  0.13131313  0.63131313       0.002
   0.50000000  0.12878788  0.62878788       0.002
   0.50000000  0.12626263  0.62626263       0.002
   0.50000000  0.12373737  0.62373737       0.002
   0.50000000  0.12121212  0.62121212       0.002
   0.50000000  0.11868687  0.61868687       0.002
   0.50000000  0.11616162  0.61616162       0.002
   0.50000000  0.11363636  0.61363636       0.002
   0.50000000  0.11111111  0.61111111       0.002
   0.50000000  0.10858586  0.60858586       0.002
   0.50000000  0.10606061  0.60606061       0.002
   0.50000000  0.10353535  0.60353535       0.002
   0.50000000  0.10101010  0.60101010       0.002
   0.50000000  0.09848485  0.59848485       0.002
   0.50000000  0.09595960  0.59595960       0.002
   0.50000000  0.09343434  0.59343434       0.002
   0.50000000  0.09090909  0.59090909       0.002
   0.50000000  0.08838384  0.58838384       0.002
   0.50000000  0.08585859  0.58585859       0.002
   0.50000000  0.08333333  0.58333333       0.002
   0.50000000  0.08080808  0.58080808       0.002
   0.50000000  0.07828283  0.57828283       0.002
   0.50000000  0.07575758  0.57575758       0.002
   0.50000000  0.07323232  0.57323232       0.002
   0.50000000  0.07070707  0.57070707       0.002
   0.50000000  0.06818182  0.56818182       0.002
   0.50000000  0.06565657  0.56565657       0.002
   0.50000000  0.06313131  0.56313131       0.002
   0.50000000  0.06060606  0.56060606       0.002
   0.50000000  0.05808081  0.55808081       0.002
   0.50000000  0.05555556  0.55555556       0.002
   0.50000000  0.05303030  0.55303030       0.002
   0.50000000  0.05050505  0.55050505       0.002
   0.50000000  0.04797980  0.54797980       0.002
[...]
      5       6.6713      0.00000
      6       6.6713      0.00000
      7      15.2205      0.00000
      8      15.2205      0.00000
      9      16.3146      0.00000
     10      16.3146      0.00000
     11      18.3017      0.00000
     12      18.3017      0.00000
     13      19.1724      0.00000
     14      19.1724      0.00000
     15      23.8976      0.00000
     16      23.8976      0.00000

 k-point   581 :       0.5000    0.0480    0.5480
  band No.  band energies     occupation 
      1      -2.0044      2.00000
      2      -2.0044      2.00000
      3       2.8080      2.00000
      4       2.8080      2.00000
      5       6.6491      0.00000
      6       6.6491      0.00000
      7      15.2649      0.00000
      8      15.2649      0.00000
      9      16.3284      0.00000
     10      16.3284      0.00000
     11      18.2961      0.00000
     12      18.2961      0.00000
     13      19.1157      0.00000
     14      19.1157      0.00000
     15      23.9335      0.00000
     16      23.9335      0.00000

 k-point   582 :       0.5000    0.0455    0.5455
  band No.  band energies     occupation 
      1      -2.0056      2.00000
      2      -2.0056      2.00000
      3       2.8189      2.00000
      4       2.8189      2.00000
      5       6.6279      0.00000
      6       6.6279      0.00000
      7      15.3073      0.00000
      8      15.3073      0.00000
      9      16.3433      0.00000
     10      16.3433      0.00000
     11      18.2902      0.00000
     12      18.2902      0.00000
     13      19.0606      0.00000
     14      19.0606      0.00000
     15      23.9692      0.00000
     16      23.9692      0.00000

 k-point   583 :       0.5000    0.0429    0.5429
  band No.  band energies     occupation 
      1      -2.0069      2.00000
      2      -2.0069      2.00000
      3       2.8293      2.00000
      4       2.8293      2.00000
      5       6.6077      0.00000
      6       6.6077      0.00000
      7      15.3474      0.00000
      8      15.3474      0.00000
      9      16.3593      0.00000
     10      16.3593      0.00000
     11      18.2838      0.00000
     12      18.2838      0.00000
     13      19.0072      0.00000
     14      19.0072      0.00000
     15      24.0045      0.00000
     16      24.0045      0.00000

 k-point   584 :       0.5000    0.0404    0.5404
  band No.  band energies     occupation 
      1      -2.0080      2.00000
      2      -2.0080      2.00000
      3       2.8393      2.00000
      4       2.8393      2.00000
      5       6.5885      0.00000
      6       6.5885      0.00000
      7      15.3852      0.00000
      8      15.3852      0.00000
      9      16.3765      0.00000
     10      16.3765      0.00000
     11      18.2769      0.00000
     12      18.2769      0.00000
     13      18.9558      0.00000
     14      18.9558      0.00000
     15      24.0395      0.00000
     16      24.0395      0.00000

 k-point   585 :       0.5000    0.0379    0.5379
  band No.  band energies     occupation 
      1      -2.0091      2.00000
      2      -2.0091      2.00000
      3       2.8488      2.00000
      4       2.8488      2.00000
      5       6.5704      0.00000
      6       6.5704      0.00000
      7      15.4206      0.00000
      8      15.4206      0.00000
      9      16.3946      0.00000
     10      16.3946      0.00000
     11      18.2694      0.00000
     12      18.2694      0.00000
     13      18.9064      0.00000
     14      18.9064      0.00000
     15      24.0740      0.00000
     16      24.0740      0.00000

 k-point   586 :       0.5000    0.0354    0.5354
  band No.  band energies     occupation 
      1      -2.0101      2.00000
      2      -2.0101      2.00000
      3       2.8578      2.00000
      4       2.8578      2.00000
      5       6.5533      0.00000
      6       6.5533      0.00000
      7      15.4534      0.00000
      8      15.4534      0.00000
      9      16.4138      0.00000
     10      16.4138      0.00000
     11      18.2613      0.00000
     12      18.2613      0.00000
     13      18.8595      0.00000
     14      18.8595      0.00000
     15      24.1078      0.00000
     16      24.1078      0.00000

 k-point   587 :       0.5000    0.0328    0.5328
  band No.  band energies     occupation 
      1      -2.0111      2.00000
      2      -2.0111      2.00000
      3       2.8662      2.00000
      4       2.8662      2.00000
      5       6.5373      0.00000
      6       6.5373      0.00000
      7      15.4837      0.00000
      8      15.4837      0.00000
      9      16.4337      0.00000
     10      16.4337      0.00000
     11      18.2525      0.00000
     12      18.2525      0.00000
     13      18.8153      0.00000
     14      18.8153      0.00000
     15      24.1409      0.00000
     16      24.1409      0.00000

 k-point   588 :       0.5000    0.0303    0.5303
  band No.  band energies     occupation 
      1      -2.0120      2.00000
      2      -2.0120      2.00000
      3       2.8741      2.00000
      4       2.8741      2.00000
      5       6.5225      0.00000
      6       6.5225      0.00000
      7      15.5115      0.00000
      8      15.5115      0.00000
      9      16.4543      0.00000
     10      16.4543      0.00000
     11      18.2428      0.00000
     12      18.2428      0.00000
     13      18.7739      0.00000
     14      18.7739      0.00000
     15      24.1730      0.00000
     16      24.1730      0.00000

 k-point   589 :       0.5000    0.0278    0.5278
  band No.  band energies     occupation 
      1      -2.0128      2.00000
      2      -2.0128      2.00000
      3       2.8815      2.00000
      4       2.8815      2.00000
      5       6.5087      0.00000
      6       6.5087      0.00000
      7      15.5367      0.00000
      8      15.5367      0.00000
      9      16.4752      0.00000
     10      16.4752      0.00000
     11      18.2324      0.00000
     12      18.2324      0.00000
     13      18.7358      0.00000
     14      18.7358      0.00000
     15      24.2041      0.00000
     16      24.2041      0.00000

 k-point   590 :       0.5000    0.0253    0.5253
  band No.  band energies     occupation 
      1      -2.0136      2.00000
      2      -2.0136      2.00000
      3       2.8883      2.00000
      4       2.8883      2.00000
      5       6.4961      0.00000
      6       6.4961      0.00000
      7      15.5593      0.00000
      8      15.5593      0.00000
      9      16.4963      0.00000
     10      16.4963      0.00000
     11      18.2212      0.00000
     12      18.2212      0.00000
     13      18.7011      0.00000
     14      18.7011      0.00000
     15      24.2339      0.00000
     16      24.2339      0.00000

 k-point   591 :       0.5000    0.0227    0.5227
  band No.  band energies     occupation 
      1      -2.0142      2.00000
      2      -2.0142      2.00000
      3       2.8944      2.00000
      4       2.8944      2.00000
      5       6.4846      0.00000
      6       6.4846      0.00000
      7      15.5795      0.00000
      8      15.5795      0.00000
      9      16.5171      0.00000
     10      16.5171      0.00000
     11      18.2093      0.00000
     12      18.2093      0.00000
     13      18.6700      0.00000
     14      18.6700      0.00000
     15      24.2621      0.00000
     16      24.2621      0.00000

 k-point   592 :       0.5000    0.0202    0.5202
  band No.  band energies     occupation 
      1      -2.0148      2.00000
      2      -2.0148      2.00000
      3       2.9000      2.00000
      4       2.9000      2.00000
      5       6.4743      0.00000
      6       6.4743      0.00000
      7      15.5972      0.00000
      8      15.5972      0.00000
      9      16.5374      0.00000
     10      16.5374      0.00000
     11      18.1970      0.00000
     12      18.1970      0.00000
     13      18.6425      0.00000
     14      18.6425      0.00000
     15      24.2886      0.00000
     16      24.2886      0.00000

 k-point   593 :       0.5000    0.0177    0.5177
  band No.  band energies     occupation 
      1      -2.0154      2.00000
      2      -2.0154      2.00000
      3       2.9049      2.00000
      4       2.9049      2.00000
      5       6.4652      0.00000
      6       6.4652      0.00000
      7      15.6126      0.00000
      8      15.6126      0.00000
      9      16.5566      0.00000
     10      16.5566      0.00000
     11      18.1845      0.00000
     12      18.1845      0.00000
     13      18.6188      0.00000
     14      18.6188      0.00000
     15      24.3131      0.00000
     16      24.3131      0.00000

 k-point   594 :       0.5000    0.0152    0.5152
  band No.  band energies     occupation 
      1      -2.0159      2.00000
      2      -2.0159      2.00000
      3       2.9093      2.00000
      4       2.9093      2.00000
      5       6.4573      0.00000
      6       6.4573      0.00000
      7      15.6257      0.00000
      8      15.6257      0.00000
      9      16.5744      0.00000
     10      16.5744      0.00000
     11      18.1723      0.00000
     12      18.1723      0.00000
     13      18.5987      0.00000
     14      18.5987      0.00000
     15      24.3352      0.00000
     16      24.3352      0.00000

 k-point   595 :       0.5000    0.0126    0.5126
  band No.  band energies     occupation 
      1      -2.0163      2.00000
      2      -2.0163      2.00000
      3       2.9129      2.00000
      4       2.9129      2.00000
      5       6.4506      0.00000
      6       6.4506      0.00000
      7      15.6366      0.00000
      8      15.6366      0.00000
      9      16.5904      0.00000
     10      16.5904      0.00000
     11      18.1607      0.00000
     12      18.1607      0.00000
     13      18.5821      0.00000
     14      18.5821      0.00000
     15      24.3546      0.00000
     16      24.3546      0.00000

 k-point   596 :       0.5000    0.0101    0.5101
  band No.  band energies     occupation 
      1      -2.0166      2.00000
      2      -2.0166      2.00000
      3       2.9159      2.00000
      4       2.9159      2.00000
      5       6.4450      0.00000
      6       6.4450      0.00000
      7      15.6455      0.00000
      8      15.6455      0.00000
      9      16.6042      0.00000
     10      16.6042      0.00000
     11      18.1504      0.00000
     12      18.1504      0.00000
     13      18.5689      0.00000
     14      18.5689      0.00000
     15      24.3710      0.00000
     16      24.3710      0.00000

 k-point   597 :       0.5000    0.0076    0.5076
  band No.  band energies     occupation 
      1      -2.0168      2.00000
      2      -2.0168      2.00000
      3       2.9183      2.00000
      4       2.9183      2.00000
      5       6.4407      0.00000
      6       6.4407      0.00000
      7      15.6523      0.00000
      8      15.6523      0.00000
      9      16.6153      0.00000
     10      16.6153      0.00000
     11      18.1417      0.00000
     12      18.1417      0.00000
     13      18.5589      0.00000
     14      18.5589      0.00000
     15      24.3842      0.00000
     16      24.3842      0.00000

 k-point   598 :       0.5000    0.0051    0.5051
  band No.  band energies     occupation 
      1      -2.0170      2.00000
      2      -2.0170      2.00000
      3       2.9200      2.00000
      4       2.9200      2.00000
      5       6.4377      0.00000
      6       6.4377      0.00000
      7      15.6571      0.00000
      8      15.6571      0.00000
      9      16.6235      0.00000
     10      16.6235      0.00000
     11      18.1352      0.00000
     12      18.1352      0.00000
     13      18.5518      0.00000
     14      18.5518      0.00000
     15      24.3938      0.00000
     16      24.3938      0.00000

 k-point   599 :       0.5000    0.0025    0.5025
  band No.  band energies     occupation 
      1      -2.0171      2.00000
      2      -2.0171      2.00000
      3       2.9210      2.00000
      4       2.9210      2.00000
      5       6.4358      0.00000
      6       6.4358      0.00000
      7      15.6599      0.00000
      8      15.6599      0.00000
      9      16.6285      0.00000
     10      16.6285      0.00000
     11      18.1312      0.00000
     12      18.1312      0.00000
     13      18.5477      0.00000
     14      18.5477      0.00000
     15      24.3997      0.00000
     16      24.3997      0.00000

 k-point   600 :       0.5000    0.0000    0.5000
  band No.  band energies     occupation 
      1      -2.0172      2.00000
      2      -2.0172      2.00000
      3       2.9213      2.00000
      4       2.9213      2.00000
      5       6.4352      0.00000
      6       6.4352      0.00000
      7      15.6609      0.00000
      8      15.6609      0.00000
      9      16.6302      0.00000
     10      16.6302      0.00000
     11      18.1298      0.00000
     12      18.1298      0.00000
     13      18.5463      0.00000
     14      18.5463      0.00000
     15      24.4016      0.00000
     16      24.4016      0.00000


--------------------------------------------------------------------------------------------------------


 soft charge-density along one line, spin component           1
         0         1         2         3         4         5         6         7         8         9
 total charge-density along one line
 
 pseudopotential strength for first ion, spin component:           1
 18.418  -0.001   0.000   0.000   0.000  -0.000  -0.000  -0.000
 -0.001   0.006  -0.000  -0.000  -0.000   0.000   0.000   0.000
  0.000  -0.000   4.179  -0.000  -0.000  -0.005   0.000   0.000
  0.000  -0.000  -0.000   4.179  -0.000   0.000  -0.005   0.000
  0.000  -0.000  -0.000  -0.000   4.179   0.000   0.000  -0.005
 -0.000   0.000  -0.005   0.000   0.000   0.005  -0.000  -0.000
 -0.000   0.000   0.000  -0.005   0.000  -0.000   0.005  -0.000
 -0.000   0.000   0.000   0.000  -0.005  -0.000  -0.000   0.005
 total augmentation occupancy for first ion, spin component:           1
  1.402  -0.824   0.000  -0.000   0.000   0.000  -0.000   0.000
 -0.824   0.802   0.000   0.000  -0.000   0.000   0.000   0.000
  0.000   0.000   1.073   0.000   0.000  -0.537  -0.000   0.000
 -0.000  -0.000  -0.000   1.073   0.000  -0.000  -0.537  -0.000
 -0.000  -0.000  -0.000   0.000   1.073  -0.000   0.000  -0.537
  0.000   0.000  -0.537   0.000   0.000   0.337   0.000  -0.000
  0.000   0.000   0.000  -0.537   0.000   0.000   0.337  -0.000
  0.000   0.000   0.000  -0.000  -0.537  -0.000   0.000   0.337


------------------------ aborting loop because EDIFF is reached ----------------------------------------


    CHARGE:  cpu time    0.1120: real time    0.1114
    FORLOC:  cpu time    0.0000: real time    0.0002
    FORNL :  cpu time    0.1480: real time    0.1480
    STRESS:  cpu time    1.7997: real time    1.7994
    FORCOR:  cpu time    0.0050: real time    0.0049
    FORHAR:  cpu time    0.0010: real time    0.0012
    MIXING:  cpu time    0.0000: real time    0.0003
    OFIELD:  cpu time    0.0000: real time    0.0000

  FORCE on cell =-STRESS in cart. coord.  units (eV):
  Direction    XX          YY          ZZ          XY          YZ          ZX
  --------------------------------------------------------------------------------------
  Alpha Z     3.29343     3.29343     3.29343
  Ewald     -75.65027   -75.65027   -75.65027     0.00000    -0.00000    -0.00000
  Hartree     5.37217     5.37217     5.37217     0.00000     0.00000     0.00000
  E(xc)     -25.40318   -25.40318   -25.40318    -0.00000    -0.00000    -0.00000
  Local     -30.04569   -30.04569   -30.04569     0.00001     0.00001     0.00001
  n-local    78.59168    73.36178    77.15683    -1.61191    -0.68688    -1.18887
  augment   -11.23636   -11.23636   -11.23636    -0.00001    -0.00001    -0.00001
  Kinetic    58.98103    55.81511    60.23114    -1.45761    -1.08964    -1.75631
  Fock        0.00000     0.00000     0.00000     0.00000     0.00000     0.00000
  -------------------------------------------------------------------------------------
  Total       1.04262     1.04262     1.04262    -0.00000    -0.00000     0.00000
  in kB      40.85750    40.85750    40.85750    -0.00000    -0.00000     0.00000
  external pressure =       40.86 kB  Pullay stress =        0.00 kB


 VOLUME and BASIS-vectors are now :
 -----------------------------------------------------------------------------
  energy-cutoff  :      500.00
  volume of cell :       40.89
      direct lattice vectors                 reciprocal lattice vectors
     0.000000000  2.734294171  2.734294171    -0.182862548  0.182862548  0.182862548
     2.734294171  0.000000000  2.734294171     0.182862548 -0.182862548  0.182862548
     2.734294171  2.734294171  0.000000000     0.182862548  0.182862548 -0.182862548

  length of vectors
     3.866875900  3.866875900  3.866875900     0.316727224  0.316727224  0.316727224


 FORCES acting on ions
    electron-ion (+dipol)            ewald-force                    non-local-force                 convergence-correction
 -----------------------------------------------------------------------------------------------
   0.246E-06 0.246E-06 0.234E-06   0.749E-15 -.128E-14 -.161E-14   -.349E-15 -.625E-16 -.222E-15   -.126E-09 -.126E-09 -.126E-09
   -.246E-06 -.246E-06 -.234E-06   -.680E-15 0.574E-15 0.165E-14   0.385E-15 0.182E-15 0.305E-15   0.126E-09 0.126E-09 0.126E-09
 -----------------------------------------------------------------------------------------------
   0.425E-13 0.137E-12 -.226E-15   0.688E-16 -.709E-15 0.373E-16   0.364E-16 0.120E-15 0.833E-16   -.106E-15 -.608E-16 0.286E-15
 
 
 POSITION                                       TOTAL-FORCE (eV/Angst)
 -----------------------------------------------------------------------------------
      4.78501      4.78501      4.78501         0.000000      0.000000      0.000000
      0.68357      0.68357      0.68357        -0.000000     -0.000000     -0.000000
 -----------------------------------------------------------------------------------
    total drift:                                0.000000      0.000000      0.000000


--------------------------------------------------------------------------------------------------------



  FREE ENERGIE OF THE ION-ELECTRON SYSTEM (eV)
  ---------------------------------------------------
  free  energy   TOTEN  =        -9.27505352 eV

  energy  without entropy=       -9.27505184  energy(sigma->0) =       -9.27505268
 


--------------------------------------------------------------------------------------------------------


    POTLOK:  cpu time    0.0070: real time    0.0077


--------------------------------------------------------------------------------------------------------


 writing wavefunctions
     LOOP+:  cpu time   42.0436: real time   42.3522
    4ORBIT:  cpu time    0.0000: real time    0.0000

 total amount of memory used by VASP on root node    82088. kBytes
========================================================================

   base      :      30000. kBytes
   nonl-proj :      40584. kBytes
   fftplans  :        304. kBytes
   grid      :        903. kBytes
   one-center:          6. kBytes
   wavefun   :      10291. kBytes
 
  
  
 General timing and accounting informations for this job:
 ========================================================
  
                  Total CPU time used (sec):       43.842
                            User time (sec):       43.582
                          System time (sec):        0.260
                         Elapsed time (sec):       44.735
  
                   Maximum memory used (kb):      143680.
                   Average memory used (kb):           0.
  
                          Minor page faults:        22899
                          Major page faults:            0
                 Voluntary context switches:         4152
