 running on   16 total cores
 distrk:  each k-point on   16 cores,    1 groups
 distr:  one band on    1 cores,   16 groups
 using from now: INCAR     
 vasp.5.4.1 24Jun15 (build May 02 2016 14:41:14) complex                        
  
 POSCAR found type information on POSCAR  Si
 POSCAR found :  1 types and       2 ions
 scaLAPACK will be used

 ----------------------------------------------------------------------------- 
|                                                                             |
|           W    W    AA    RRRRR   N    N  II  N    N   GGGG   !!!           |
|           W    W   A  A   R    R  NN   N  II  NN   N  G    G  !!!           |
|           W    W  A    A  R    R  N N  N  II  N N  N  G       !!!           |
|           W WW W  AAAAAA  RRRRR   N  N N  II  N  N N  G  GGG   !            |
|           WW  WW  A    A  R   R   N   NN  II  N   NN  G    G                |
|           W    W  A    A  R    R  N    N  II  N    N   GGGG   !!!           |
|                                                                             |
|      For optimal performance we recommend to set                            |
|        NCORE= 4 - approx SQRT( number of cores)                             |
|      NCORE specifies how many cores store one orbital (NPAR=cpu/NCORE).     |
|      This setting can  greatly improve the performance of VASP for DFT.     |
|      The default, NPAR=number of cores might be grossly inefficient         |
|      on modern multi-core architectures or massively parallel machines.     |
|      Do your own testing !!!!                                               |
|      Unfortunately you need to use the default for GW and RPA calculations. |
|      (for HF NCORE is supported but not extensively tested yet)             |
|                                                                             |
 ----------------------------------------------------------------------------- 

 LDA part: xc-table for Pade appr. of Perdew
 POSCAR, INCAR and KPOINTS ok, starting setup
 WARNING: small aliasing (wrap around) errors must be expected
 FFT: planning ...
 WAVECAR not read
 entering main loop
       N       E                     dE             d eps       ncg     rms          rms(c)
DAV:   1    -0.235187244200E+00   -0.23519E+00   -0.32216E+03 19248   0.382E+02
DAV:   2    -0.945327456051E+01   -0.92181E+01   -0.87671E+01 28384   0.351E+01
DAV:   3    -0.951804428937E+01   -0.64770E-01   -0.64770E-01 22416   0.359E+00
DAV:   4    -0.951820990545E+01   -0.16562E-03   -0.16562E-03 34832   0.196E-01
DAV:   5    -0.951820991667E+01   -0.11223E-07   -0.11131E-07 22320   0.136E-03    0.344E+00
DAV:   6    -0.934943088510E+01    0.16878E+00   -0.10834E-01 25104   0.861E-01    0.203E+00
DAV:   7    -0.927229061726E+01    0.77140E-01   -0.20449E-01 26992   0.127E+00    0.177E-01
DAV:   8    -0.927484001664E+01   -0.25494E-02   -0.52009E-03 21744   0.267E-01    0.302E-02
DAV:   9    -0.927502519393E+01   -0.18518E-03   -0.17508E-04 32272   0.536E-02    0.154E-02
DAV:  10    -0.927505474149E+01   -0.29548E-04   -0.40889E-05 23152   0.253E-02    0.272E-03
DAV:  11    -0.927505359476E+01    0.11467E-05   -0.15016E-06 32144   0.394E-03    0.546E-04
DAV:  12    -0.927505352196E+01    0.72794E-07   -0.56266E-08 20160   0.116E-03
   1 F= -.92750535E+01 E0= -.92750527E+01  d E =-.167800E-05
 writing wavefunctions
