FCC Silicon                             
   3.90000000000000     
     0.500000    0.500000    0.000000
     0.000000    0.500000    0.500000
     0.500000    0.000000    0.500000
   Si
     1
Direct
  0.000000  0.000000  0.000000
 
   20   20   20
 -2.5577     -1.7602     0.29534      2.7771      4.7872      5.7873      5.7852      5.2142      4.6004      4.1812    
  4.0338      4.1812      4.6004      5.2142      5.7852      5.7873      4.7872      2.7771     0.29534     -1.7602    
 -1.7602     -.33648      1.9096      4.0951      5.5002      5.8797      5.4872      4.8401      4.3147      4.0290    
  4.0292      4.3149      4.8401      5.4870      5.8797      5.5005      4.0953      1.9092     -.33726     -1.7606    
 0.29534      1.9096      3.8109      5.2642      5.8550      5.6370      5.0137      4.4175      4.0172      3.8774    
  4.0172      4.4175      5.0137      5.6370      5.8550      5.2642      3.8109      1.9095     0.29525     -.33726    
  2.7771      4.0951      5.2642      5.8291      5.6940      5.1153      4.4846      4.0033      3.7468      3.7468    
  4.0031      4.4846      5.1154      5.6940      5.8288      5.2641      4.0954      2.7776      1.9095      1.9092    
  4.7872      5.5002      5.8550      5.6940      5.1481      4.5171      3.9923      3.6527      3.5362      3.6527    
  3.9923      4.5171      5.1482      5.6940      5.8549      5.5001      4.7872      4.0954      3.8109      4.0953    
  5.7873      5.8797      5.6370      5.1153      4.5171      3.9882      3.6040      3.4047      3.4047      3.6041    
  3.9883      4.5171      5.1155      5.6371      5.8796      5.7870      5.5001      5.2641      5.2642      5.5005    
  5.7852      5.4872      5.0137      4.4846      3.9923      3.6040      3.3603      3.2779      3.3603      3.6040    
  3.9923      4.4845      5.0137      5.4873      5.7852      5.8796      5.8549      5.8288      5.8550      5.8797    
  5.2142      4.8401      4.4175      4.0033      3.6527      3.4047      3.2779      3.2779      3.4047      3.6527    
  4.0031      4.4174      4.8402      5.2144      5.4873      5.6371      5.6940      5.6940      5.6370      5.4870    
  4.6004      4.3147      4.0172      3.7468      3.5362      3.4047      3.3603      3.4047      3.5362      3.7469    
  4.0172      4.3147      4.6004      4.8402      5.0137      5.1155      5.1482      5.1154      5.0137      4.8401    
  4.1812      4.0290      3.8774      3.7468      3.6527      3.6041      3.6040      3.6527      3.7469      3.8777    
  4.0292      4.1811      4.3147      4.4174      4.4845      4.5171      4.5171      4.4846      4.4175      4.3149    
  4.0338      4.0292      4.0172      4.0031      3.9923      3.9883      3.9923      4.0031      4.0172      4.0292    
  4.0339      4.0292      4.0172      4.0031      3.9923      3.9883      3.9923      4.0031      4.0172      4.0292    
  4.1812      4.3149      4.4175      4.4846      4.5171      4.5171      4.4845      4.4174      4.3147      4.1811    
  4.0292      3.8777      3.7469      3.6527      3.6040      3.6041      3.6527      3.7468      3.8774      4.0290    
  4.6004      4.8401      5.0137      5.1154      5.1482      5.1155      5.0137      4.8402      4.6004      4.3147    
  4.0172      3.7469      3.5362      3.4047      3.3603      3.4047      3.5362      3.7468      4.0172      4.3147    
  5.2142      5.4870      5.6370      5.6940      5.6940      5.6371      5.4873      5.2144      4.8402      4.4174    
  4.0031      3.6527      3.4047      3.2779      3.2779      3.4047      3.6527      4.0033      4.4175      4.8401    
  5.7852      5.8797      5.8550      5.8288      5.8549      5.8796      5.7852      5.4873      5.0137      4.4845    
  3.9923      3.6040      3.3603      3.2779      3.3603      3.6040      3.9923      4.4846      5.0137      5.4872    
  5.7873      5.5005      5.2642      5.2641      5.5001      5.7870      5.8796      5.6371      5.1155      4.5171    
  3.9883      3.6041      3.4047      3.4047      3.6040      3.9882      4.5171      5.1153      5.6370      5.8797    
  4.7872      4.0953      3.8109      4.0954      4.7872      5.5001      5.8549      5.6940      5.1482      4.5171    
  3.9923      3.6527      3.5362      3.6527      3.9923      4.5171      5.1481      5.6940      5.8550      5.5002    
  2.7771      1.9092      1.9095      2.7776      4.0954      5.2641      5.8288      5.6940      5.1154      4.4846    
  4.0031      3.7468      3.7468      4.0033      4.4846      5.1153      5.6940      5.8291      5.2642      4.0951    
 0.29534     -.33726     0.29525      1.9095      3.8109      5.2642      5.8550      5.6370      5.0137      4.4175    
  4.0172      3.8774      4.0172      4.4175      5.0137      5.6370      5.8550      5.2642      3.8109      1.9096    
 -1.7602     -1.7606     -.33726      1.9092      4.0953      5.5005      5.8797      5.4870      4.8401      4.3149    
  4.0292      4.0290      4.3147      4.8401      5.4872      5.8797      5.5002      4.0951      1.9096     -.33648    
 -1.7602     -.33652      1.9095      4.0951      5.5001      5.8797      5.4872      4.8402      4.3147      4.0290    
  4.0292      4.3150      4.8401      5.4870      5.8797      5.5005      4.0954      1.9092     -.33725     -1.7606    
 -.33652      1.4212      3.5091      5.1388      5.8569      5.7040      5.0941      4.4911      4.0841      3.9417    
  4.0842      4.4911      5.0940      5.7041      5.8573      5.1391      3.5088      1.4204     -.33732     -1.0234    
  1.9095      3.5091      4.9812      5.7900      5.7974      5.2626      4.6211      4.1244      3.8580      3.8579    
  4.1242      4.6211      5.2628      5.7976      5.7901      4.9811      3.5089      1.9094     0.87128     0.87131    
  4.0951      5.1388      5.7900      5.8200      5.3431      4.6992      4.1494      3.7900      3.6660      3.7900    
  4.1494      4.6992      5.3430      5.8199      5.7900      5.1390      4.0955      3.1424      2.7584      3.1421    
  5.5001      5.8569      5.7974      5.3431      4.7252      4.1614      3.7464      3.5295      3.5296      3.7465    
  4.1614      4.7251      5.3430      5.7975      5.8571      5.5002      4.9502      4.5499      4.5499      4.9503    
  5.8797      5.7040      5.2626      4.6992      4.1614      3.7316      3.4597      3.3673      3.4597      3.7316    
  4.1614      4.6993      5.2628      5.7041      5.8796      5.8014      5.6263      5.5407      5.6265      5.8017    
  5.4872      5.0941      4.6211      4.1494      3.7464      3.4597      3.3128      3.3127      3.4597      3.7464    
  4.1494      4.6211      5.0941      5.4872      5.7201      5.8001      5.8047      5.8047      5.8000      5.7201    
  4.8402      4.4911      4.1244      3.7900      3.5295      3.3673      3.3127      3.3674      3.5296      3.7899    
  4.1242      4.4909      4.8402      5.1283      5.3262      5.4290      5.4587      5.4288      5.3259      5.1281    
  4.3147      4.0841      3.8580      3.6660      3.5296      3.4597      3.4597      3.5296      3.6660      3.8580    
  4.0841      4.3147      4.5200      4.6790      4.7832      4.8336      4.8336      4.7832      4.6790      4.5200    
  4.0290      3.9417      3.8579      3.7900      3.7465      3.7316      3.7464      3.7899      3.8580      3.9419    
  4.0291      4.1073      4.1678      4.2082      4.2304      4.2373      4.2304      4.2084      4.1680      4.1073    
  4.0292      4.0842      4.1242      4.1494      4.1614      4.1614      4.1494      4.1242      4.0841      4.0291    
  3.9626      3.8921      3.8280      3.7799      3.7544      3.7545      3.7800      3.8280      3.8921      3.9626    
  4.3150      4.4911      4.6211      4.6992      4.7251      4.6993      4.6211      4.4909      4.3147      4.1073    
  3.8921      3.6962      3.5427      3.4465      3.4139      3.4465      3.5426      3.6960      3.8920      4.1074    
  4.8401      5.0940      5.2628      5.3430      5.3430      5.2628      5.0941      4.8402      4.5200      4.1678    
  3.8280      3.5427      3.3414      3.2386      3.2386      3.3414      3.5427      3.8280      4.1678      4.5200    
  5.4870      5.7041      5.7976      5.8199      5.7975      5.7041      5.4872      5.1283      4.6790      4.2082    
  3.7799      3.4465      3.2386      3.1685      3.2386      3.4465      3.7801      4.2084      4.6790      5.1281    
  5.8797      5.8573      5.7901      5.7900      5.8571      5.8796      5.7201      5.3262      4.7832      4.2304    
  3.7544      3.4139      3.2386      3.2386      3.4138      3.7544      4.2304      4.7832      5.3261      5.7201    
  5.5005      5.1391      4.9811      5.1390      5.5002      5.8014      5.8001      5.4290      4.8336      4.2373    
  3.7545      3.4465      3.3414      3.4465      3.7544      4.2372      4.8334      5.4289      5.8002      5.8017    
  4.0954      3.5088      3.5089      4.0955      4.9502      5.6263      5.8047      5.4587      4.8336      4.2304    
  3.7800      3.5426      3.5427      3.7801      4.2304      4.8334      5.4585      5.8048      5.6264      4.9503    
  1.9092      1.4204      1.9094      3.1424      4.5499      5.5407      5.8047      5.4288      4.7832      4.2084    
  3.8280      3.6960      3.8280      4.2084      4.7832      5.4289      5.8048      5.5407      4.5497      3.1421    
 -.33725     -.33732     0.87128      2.7584      4.5499      5.6265      5.8000      5.3259      4.6790      4.1680    
  3.8921      3.8920      4.1678      4.6790      5.3261      5.8002      5.6264      4.5497      2.7582     0.87134    
 -1.7606     -1.0234     0.87131      3.1421      4.9503      5.8017      5.7201      5.1281      4.5200      4.1073    
  3.9626      4.1074      4.5200      5.1281      5.7201      5.8017      4.9503      3.1421     0.87134     -1.0233    
 0.29529      1.9095      3.8109      5.2642      5.8550      5.6370      5.0138      4.4176      4.0172      3.8774    
  4.0172      4.4176      5.0137      5.6370      5.8550      5.2643      3.8109      1.9095     0.29524     -.33727    
  1.9095      3.5091      4.9812      5.7901      5.7974      5.2626      4.6212      4.1244      3.8580      3.8579    
  4.1242      4.6211      5.2628      5.7976      5.7901      4.9811      3.5089      1.9094     0.87126     0.87128    
  3.8109      4.9812      5.7474      5.8537      5.4079      4.7623      4.2044      3.8382      3.7116      3.8382    
  4.2044      4.7623      5.4079      5.8537      5.7473      4.9812      3.8109      2.7583      2.3366      2.7582    
  5.2642      5.7901      5.8537      5.4543      4.8341      4.2534      3.8226      3.5966      3.5967      3.8228    
  4.2534      4.8341      5.4542      5.8536      5.7901      5.2644      4.5499      4.0476      4.0475      4.5497    
  5.8550      5.7974      5.4079      4.8341      4.2699      3.8145      3.5247      3.4260      3.5247      3.8145    
  4.2699      4.8342      5.4079      5.7974      5.8550      5.6264      5.3250      5.1901      5.3250      5.6264    
  5.6370      5.2626      4.7623      4.2534      3.8145      3.5005      3.3390      3.3390      3.5004      3.8144    
  4.2535      4.7625      5.2628      5.6370      5.8000      5.7924      5.7373      5.7374      5.7926      5.8002    
  5.0138      4.6212      4.2044      3.8226      3.5247      3.3390      3.2764      3.3390      3.5247      3.8226    
  4.2044      4.6211      5.0137      5.3261      5.5145      5.5939      5.6123      5.5940      5.5145      5.3261    
  4.4176      4.1244      3.8382      3.5966      3.4260      3.3390      3.3390      3.4261      3.5967      3.8381    
  4.1242      4.4174      4.6790      4.8812      5.0125      5.0741      5.0740      5.0122      4.8810      4.6790    
  4.0172      3.8580      3.7116      3.5967      3.5247      3.5004      3.5247      3.5967      3.7116      3.8580    
  4.0172      4.1678      4.2921      4.3805      4.4318      4.4483      4.4317      4.3805      4.2921      4.1678    
  3.8774      3.8579      3.8382      3.8228      3.8145      3.8144      3.8226      3.8381      3.8580      3.8776    
  3.8921      3.8988      3.8987      3.8951      3.8922      3.8922      3.8953      3.8988      3.8988      3.8919    
  4.0172      4.1242      4.2044      4.2534      4.2699      4.2535      4.2044      4.1242      4.0172      3.8921    
  3.7619      3.6422      3.5472      3.4870      3.4664      3.4870      3.5472      3.6422      3.7619      3.8921    
  4.4176      4.6211      4.7623      4.8341      4.8342      4.7625      4.6211      4.4174      4.1678      3.8988    
  3.6422      3.4276      3.2763      3.1989      3.1989      3.2762      3.4275      3.6421      3.8989      4.1681    
  5.0137      5.2628      5.4079      5.4542      5.4079      5.2628      5.0137      4.6790      4.2921      3.8987    
  3.5472      3.2763      3.1082      3.0516      3.1082      3.2763      3.5472      3.8987      4.2921      4.6790    
  5.6370      5.7976      5.8537      5.8536      5.7974      5.6370      5.3261      4.8812      4.3805      3.8951    
  3.4870      3.1989      3.0516      3.0516      3.1989      3.4870      3.8953      4.3805      4.8809      5.3259    
  5.8550      5.7901      5.7473      5.7901      5.8550      5.8000      5.5145      5.0125      4.4318      3.8922    
  3.4664      3.1989      3.1082      3.1989      3.4664      3.8921      4.4317      5.0124      5.5145      5.8000    
  5.2643      4.9811      4.9812      5.2644      5.6264      5.7924      5.5939      5.0741      4.4483      3.8922    
  3.4870      3.2762      3.2763      3.4870      3.8921      4.4481      5.0740      5.5941      5.7927      5.6265    
  3.8109      3.5089      3.8109      4.5499      5.3250      5.7373      5.6123      5.0740      4.4317      3.8953    
  3.5472      3.4275      3.5472      3.8953      4.4317      5.0740      5.6122      5.7373      5.3250      4.5499    
  1.9095      1.9094      2.7583      4.0476      5.1901      5.7374      5.5940      5.0122      4.3805      3.8988    
  3.6422      3.6421      3.8987      4.3805      5.0124      5.5941      5.7373      5.1898      4.0474      2.7583    
 0.29524     0.87126      2.3366      4.0475      5.3250      5.7926      5.5145      4.8810      4.2921      3.8988    
  3.7619      3.8989      4.2921      4.8809      5.5145      5.7927      5.3250      4.0474      2.3366     0.87129    
 -.33727     0.87128      2.7582      4.5497      5.6264      5.8002      5.3261      4.6790      4.1678      3.8919    
  3.8921      4.1681      4.6790      5.3259      5.8000      5.6265      4.5499      2.7583     0.87129     -.33729    
  2.7770      4.0951      5.2642      5.8291      5.6940      5.1153      4.4846      4.0033      3.7468      3.7467    
  4.0032      4.4846      5.1154      5.6940      5.8288      5.2641      4.0954      2.7776      1.9095      1.9092    
  4.0951      5.1388      5.7901      5.8200      5.3431      4.6992      4.1494      3.7900      3.6660      3.7900    
  4.1494      4.6992      5.3430      5.8199      5.7900      5.1390      4.0954      3.1424      2.7583      3.1421    
  5.2642      5.7901      5.8537      5.4544      4.8342      4.2534      3.8227      3.5966      3.5967      3.8228    
  4.2534      4.8341      5.4542      5.8536      5.7901      5.2644      4.5499      4.0476      4.0475      4.5497    
  5.8291      5.8200      5.4544      4.8799      4.3071      3.8432      3.5474      3.4465      3.5474      3.8433    
  4.3073      4.8800      5.4542      5.8197      5.8290      5.5410      5.1902      5.0359      5.1899      5.5407    
  5.6940      5.3431      4.8342      4.3071      3.8501      3.5222      3.3532      3.3531      3.5221      3.8502    
  4.3073      4.8342      5.3430      5.6939      5.8047      5.7374      5.6427      5.6426      5.7373      5.8048    
  5.1153      4.6992      4.2534      3.8432      3.5222      3.3218      3.2541      3.3217      3.5221      3.8432    
  4.2535      4.6993      5.1155      5.4288      5.5939      5.6452      5.6513      5.6454      5.5941      5.4288    
  4.4846      4.1494      3.8227      3.5474      3.3532      3.2541      3.2541      3.3532      3.5474      3.8227    
  4.1494      4.4846      4.7832      5.0124      5.1550      5.2177      5.2178      5.1551      5.0124      4.7832    
  4.0033      3.7900      3.5966      3.4465      3.3531      3.3217      3.3532      3.4466      3.5967      3.7899    
  4.0031      4.2083      4.3805      4.5052      4.5783      4.6020      4.5781      4.5051      4.3806      4.2084    
  3.7468      3.6660      3.5967      3.5474      3.5221      3.5221      3.5474      3.5967      3.6660      3.7469    
  3.8280      3.8987      3.9520      3.9861      4.0024      4.0024      3.9862      3.9520      3.8987      3.8280    
  3.7467      3.7900      3.8228      3.8433      3.8502      3.8432      3.8227      3.7899      3.7469      3.6962    
  3.6422      3.5908      3.5486      3.5210      3.5115      3.5211      3.5487      3.5908      3.6420      3.6960    
  4.0032      4.1494      4.2534      4.3073      4.3073      4.2535      4.1494      4.0031      3.8280      3.6422    
  3.4662      3.3194      3.2154      3.1620      3.1620      3.2154      3.3194      3.4663      3.6422      3.8280    
  4.4846      4.6992      4.8341      4.8800      4.8342      4.6993      4.4846      4.2083      3.8987      3.5908    
  3.3194      3.1114      2.9826      2.9392      2.9825      3.1113      3.3193      3.5909      3.8988      4.2084    
  5.1154      5.3430      5.4542      5.4542      5.3430      5.1155      4.7832      4.3805      3.9520      3.5486    
  3.2154      2.9826      2.8641      2.8641      2.9826      3.2154      3.5486      3.9520      4.3805      4.7831    
  5.6940      5.8199      5.8536      5.8197      5.6939      5.4288      5.0124      4.5052      3.9861      3.5210    
  3.1620      2.9392      2.8641      2.9392      3.1621      3.5211      3.9861      4.5050      5.0122      5.4287    
  5.8288      5.7900      5.7901      5.8290      5.8047      5.5939      5.1550      4.5783      4.0024      3.5115    
  3.1620      2.9825      2.9826      3.1621      3.5115      4.0023      4.5782      5.1551      5.5940      5.8047    
  5.2641      5.1390      5.2644      5.5410      5.7374      5.6452      5.2177      4.6020      4.0024      3.5211    
  3.2154      3.1113      3.2154      3.5211      4.0023      4.6020      5.2179      5.6454      5.7375      5.5407    
  4.0954      4.0954      4.5499      5.1902      5.6427      5.6513      5.2178      4.5781      3.9862      3.5487    
  3.3194      3.3193      3.5486      3.9861      4.5782      5.2179      5.6513      5.6426      5.1901      4.5498    
  2.7776      3.1424      4.0476      5.0359      5.6426      5.6454      5.1551      4.5051      3.9520      3.5908    
  3.4663      3.5909      3.9520      4.5050      5.1551      5.6454      5.6426      5.0359      4.0476      3.1424    
  1.9095      2.7583      4.0475      5.1899      5.7373      5.5941      5.0124      4.3806      3.8987      3.6420    
  3.6422      3.8988      4.3805      5.0122      5.5940      5.7375      5.1901      4.0476      2.7583      1.9095    
  1.9092      3.1421      4.5497      5.5407      5.8048      5.4288      4.7832      4.2084      3.8280      3.6960    
  3.8280      4.2084      4.7831      5.4287      5.8047      5.5407      4.5498      3.1424      1.9095      1.4204    
  4.7872      5.5001      5.8550      5.6941      5.1481      4.5170      3.9923      3.6528      3.5361      3.6527    
  3.9923      4.5171      5.1481      5.6940      5.8550      5.5002      4.7872      4.0954      3.8109      4.0954    
  5.5001      5.8569      5.7974      5.3431      4.7252      4.1614      3.7464      3.5295      3.5296      3.7465    
  4.1614      4.7251      5.3430      5.7975      5.8571      5.5002      4.9502      4.5498      4.5499      4.9503    
  5.8550      5.7974      5.4079      4.8342      4.2699      3.8145      3.5247      3.4260      3.5247      3.8145    
  4.2699      4.8341      5.4079      5.7974      5.8550      5.6264      5.3250      5.1901      5.3250      5.6265    
  5.6941      5.3431      4.8342      4.3072      3.8501      3.5222      3.3532      3.3531      3.5221      3.8502    
  4.3073      4.8342      5.3430      5.6938      5.8047      5.7374      5.6427      5.6426      5.7374      5.8048    
  5.1481      4.7252      4.2699      3.8501      3.5213      3.3160      3.2467      3.3160      3.5213      3.8501    
  4.2699      4.7252      5.1481      5.4585      5.6122      5.6513      5.6521      5.6513      5.6122      5.4585    
  4.5170      4.1614      3.8145      3.5222      3.3160      3.2108      3.2108      3.3160      3.5221      3.8144    
  4.1614      4.5172      4.8336      5.0740      5.2177      5.2781      5.2782      5.2179      5.0739      4.8334    
  3.9923      3.7464      3.5247      3.3532      3.2467      3.2108      3.2467      3.3532      3.5247      3.7464    
  3.9923      4.2304      4.4318      4.5782      4.6645      4.6927      4.6645      4.5782      4.4317      4.2304    
  3.6528      3.5295      3.4260      3.3531      3.3160      3.3160      3.3532      3.4261      3.5296      3.6527    
  3.7800      3.8952      3.9862      4.0470      4.0769      4.0769      4.0469      3.9862      3.8953      3.7801    
  3.5361      3.5296      3.5247      3.5221      3.5213      3.5221      3.5247      3.5296      3.5362      3.5427    
  3.5472      3.5486      3.5475      3.5458      3.5449      3.5457      3.5475      3.5486      3.5472      3.5427    
  3.6527      3.7465      3.8145      3.8502      3.8501      3.8144      3.7464      3.6527      3.5427      3.4276    
  3.3194      3.2289      3.1645      3.1312      3.1313      3.1646      3.2289      3.3193      3.4275      3.5426    
  3.9923      4.1614      4.2699      4.3073      4.2699      4.1614      3.9923      3.7800      3.5472      3.3194    
  3.1202      2.9678      2.8733      2.8414      2.8733      2.9678      3.1202      3.3194      3.5472      3.7800    
  4.5171      4.7251      4.8341      4.8342      4.7252      4.5172      4.2304      3.8952      3.5486      3.2289    
  2.9678      2.7862      2.6939      2.6939      2.7862      2.9678      3.2289      3.5487      3.8953      4.2304    
  5.1481      5.3430      5.4079      5.3430      5.1481      4.8336      4.4318      3.9862      3.5475      3.1645    
  2.8733      2.6939      2.6336      2.6939      2.8733      3.1645      3.5476      3.9862      4.4317      4.8336    
  5.6940      5.7975      5.7974      5.6938      5.4585      5.0740      4.5782      4.0470      3.5458      3.1312    
  2.8414      2.6939      2.6939      2.8414      3.1313      3.5457      4.0469      4.5781      5.0739      5.4586    
  5.8550      5.8571      5.8550      5.8047      5.6122      5.2177      4.6645      4.0769      3.5449      3.1313    
  2.8733      2.7862      2.8733      3.1313      3.5449      4.0769      4.6645      5.2178      5.6122      5.8047    
  5.5002      5.5002      5.6264      5.7374      5.6513      5.2781      4.6927      4.0769      3.5457      3.1646    
  2.9678      2.9678      3.1645      3.5457      4.0769      4.6928      5.2782      5.6513      5.7373      5.6263    
  4.7872      4.9502      5.3250      5.6427      5.6521      5.2782      4.6645      4.0469      3.5475      3.2289    
  3.1202      3.2289      3.5476      4.0469      4.6645      5.2782      5.6522      5.6427      5.3250      4.9502    
  4.0954      4.5498      5.1901      5.6426      5.6513      5.2179      4.5782      3.9862      3.5486      3.3193    
  3.3194      3.5487      3.9862      4.5781      5.2178      5.6513      5.6427      5.1902      4.5499      4.0955    
  3.8109      4.5499      5.3250      5.7374      5.6122      5.0739      4.4317      3.8953      3.5472      3.4275    
  3.5472      3.8953      4.4317      5.0739      5.6122      5.7373      5.3250      4.5499      3.8109      3.5089    
  4.0954      4.9503      5.6265      5.8048      5.4585      4.8334      4.2304      3.7801      3.5427      3.5426    
  3.7800      4.2304      4.8336      5.4586      5.8047      5.6263      4.9502      4.0955      3.5089      3.5089    
  5.7873      5.8797      5.6370      5.1153      4.5170      3.9882      3.6040      3.4047      3.4047      3.6041    
  3.9883      4.5171      5.1154      5.6371      5.8797      5.7871      5.5001      5.2641      5.2643      5.5005    
  5.8797      5.7040      5.2626      4.6992      4.1614      3.7316      3.4597      3.3674      3.4597      3.7315    
  4.1614      4.6993      5.2628      5.7041      5.8796      5.8014      5.6263      5.5407      5.6265      5.8017    
  5.6370      5.2626      4.7623      4.2534      3.8145      3.5005      3.3390      3.3390      3.5004      3.8144    
  4.2535      4.7625      5.2628      5.6370      5.8000      5.7924      5.7373      5.7374      5.7927      5.8002    
  5.1153      4.6992      4.2534      3.8432      3.5222      3.3218      3.2541      3.3217      3.5221      3.8431    
  4.2535      4.6993      5.1154      5.4288      5.5939      5.6452      5.6513      5.6454      5.5941      5.4289    
  4.5170      4.1614      3.8145      3.5222      3.3160      3.2108      3.2108      3.3160      3.5221      3.8144    
  4.1614      4.5172      4.8336      5.0740      5.2177      5.2781      5.2782      5.2179      5.0739      4.8334    
  3.9882      3.7316      3.5005      3.3218      3.2108      3.1735      3.2108      3.3217      3.5004      3.7315    
  3.9883      4.2373      4.4483      4.6020      4.6927      4.7223      4.6928      4.6020      4.4481      4.2371    
  3.6040      3.4597      3.3390      3.2541      3.2108      3.2108      3.2541      3.3390      3.4597      3.6040    
  3.7545      3.8922      4.0024      4.0769      4.1140      4.1140      4.0769      4.0023      3.8922      3.7545    
  3.4047      3.3674      3.3390      3.3217      3.3160      3.3217      3.3390      3.3674      3.4047      3.4465    
  3.4870      3.5211      3.5458      3.5602      3.5649      3.5601      3.5457      3.5211      3.4871      3.4465    
  3.4047      3.4597      3.5004      3.5221      3.5221      3.5004      3.4597      3.4047      3.3415      3.2763    
  3.2154      3.1645      3.1280      3.1090      3.1090      3.1280      3.1645      3.2154      3.2763      3.3414    
  3.6041      3.7315      3.8144      3.8431      3.8144      3.7315      3.6040      3.4465      3.2763      3.1114    
  2.9678      2.8578      2.7893      2.7661      2.7893      2.8579      2.9678      3.1113      3.2762      3.4465    
  3.9883      4.1614      4.2535      4.2535      4.1614      3.9883      3.7545      3.4870      3.2154      2.9678    
  2.7666      2.6264      2.5549      2.5549      2.6264      2.7666      2.9678      3.2154      3.4870      3.7545    
  4.5171      4.6993      4.7625      4.6993      4.5172      4.2373      3.8922      3.5211      3.1645      2.8578    
  2.6264      2.4840      2.4361      2.4840      2.6263      2.8579      3.1646      3.5212      3.8922      4.2373    
  5.1154      5.2628      5.2628      5.1154      4.8336      4.4483      4.0024      3.5458      3.1280      2.7893    
  2.5549      2.4361      2.4361      2.5549      2.7893      3.1280      3.5458      4.0024      4.4483      4.8336    
  5.6371      5.7041      5.6370      5.4288      5.0740      4.6020      4.0769      3.5602      3.1090      2.7661    
  2.5549      2.4840      2.5549      2.7661      3.1090      3.5601      4.0769      4.6020      5.0740      5.4289    
  5.8797      5.8796      5.8000      5.5939      5.2177      4.6927      4.1140      3.5649      3.1090      2.7893    
  2.6264      2.6263      2.7893      3.1090      3.5649      4.1140      4.6927      5.2177      5.5940      5.8001    
  5.7871      5.8014      5.7924      5.6452      5.2781      4.7223      4.1140      3.5601      3.1280      2.8579    
  2.7666      2.8579      3.1280      3.5601      4.1140      4.7223      5.2782      5.6452      5.7924      5.8015    
  5.5001      5.6263      5.7373      5.6513      5.2782      4.6928      4.0769      3.5457      3.1645      2.9678    
  2.9678      3.1646      3.5458      4.0769      4.6927      5.2782      5.6513      5.7374      5.6264      5.5002    
  5.2641      5.5407      5.7374      5.6454      5.2179      4.6020      4.0023      3.5211      3.2154      3.1113    
  3.2154      3.5212      4.0024      4.6020      5.2177      5.6452      5.7374      5.5410      5.2644      5.1390    
  5.2643      5.6265      5.7927      5.5941      5.0739      4.4481      3.8922      3.4871      3.2763      3.2762    
  3.4870      3.8922      4.4483      5.0740      5.5940      5.7924      5.6264      5.2644      4.9812      4.9812    
  5.5005      5.8017      5.8002      5.4289      4.8334      4.2371      3.7545      3.4465      3.3414      3.4465    
  3.7545      4.2373      4.8336      5.4289      5.8001      5.8015      5.5002      5.1390      4.9812      5.1392    
  5.7851      5.4872      5.0137      4.4846      3.9923      3.6040      3.3603      3.2779      3.3603      3.6040    
  3.9923      4.4846      5.0137      5.4873      5.7852      5.8797      5.8549      5.8288      5.8550      5.8797    
  5.4872      5.0941      4.6211      4.1494      3.7464      3.4597      3.3128      3.3128      3.4597      3.7464    
  4.1494      4.6211      5.0941      5.4872      5.7202      5.8001      5.8047      5.8046      5.8000      5.7201    
  5.0137      4.6211      4.2044      3.8226      3.5247      3.3390      3.2764      3.3390      3.5247      3.8226    