FCC Silicon                             
   3.90000000000000     
     0.500000    0.500000    0.000000
     0.000000    0.500000    0.500000
     0.500000    0.000000    0.500000
   Si
     1
Direct
  0.000000  0.000000  0.000000
 
   20   20   20
 -.25577318278E+01 -.17602252882E+01 0.29533695834E+00 0.27770690764E+01 0.47872020748E+01
 0.57873420681E+01 0.57851828074E+01 0.52141657045E+01 0.46003743571E+01 0.41812368569E+01
 0.40338433625E+01 0.41812368569E+01 0.46003743571E+01 0.52141657045E+01 0.57851828074E+01
 0.57873420681E+01 0.47872020748E+01 0.27770690764E+01 0.29533695834E+00 -.17602252882E+01
 -.17602252882E+01 -.33647805540E+00 0.19095739588E+01 0.40951309514E+01 0.55001621630E+01
 0.58796946094E+01 0.54872497501E+01 0.48401495886E+01 0.43147011510E+01 0.40290054820E+01
 0.40291583390E+01 0.43149394155E+01 0.48401331514E+01 0.54870309052E+01 0.58796731562E+01
 0.55004791208E+01 0.40953470933E+01 0.19091934389E+01 -.33726410095E+00 -.17606360828E+01
 0.29533695834E+00 0.19095739588E+01 0.38108757553E+01 0.52642024369E+01 0.58549768267E+01
 0.56370314963E+01 0.50137431329E+01 0.44175152468E+01 0.40172004434E+01 0.38774050488E+01
 0.40172230934E+01 0.44175222687E+01 0.50137107547E+01 0.56369910660E+01 0.58549793114E+01
 0.52642391705E+01 0.38108723867E+01 0.19094918108E+01 0.29524536801E+00 -.33726410095E+00
 0.27770690764E+01 0.40951309514E+01 0.52642024369E+01 0.58290539511E+01 0.56940325116E+01
 0.51153446651E+01 0.44845716165E+01 0.40032854780E+01 0.37468410039E+01 0.37467506786E+01
 0.40031346953E+01 0.44845503099E+01 0.51154291157E+01 0.56939985065E+01 0.58288302991E+01
 0.52640796244E+01 0.40954317590E+01 0.27776467212E+01 0.19094918108E+01 0.19091934389E+01
 0.47872020748E+01 0.55001621630E+01 0.58549768267E+01 0.56940325116E+01 0.51481371550E+01
 0.45170795326E+01 0.39922935203E+01 0.36527413655E+01 0.35361588028E+01 0.36527459979E+01
 0.39922788949E+01 0.45170657030E+01 0.51481562264E+01 0.56940462450E+01 0.58549357729E+01
 0.55001211801E+01 0.47872470383E+01 0.40954317590E+01 0.38108723867E+01 0.40953470933E+01
 0.57873420681E+01 0.58796946094E+01 0.56370314963E+01 0.51153446651E+01 0.45170795326E+01
 0.39882492994E+01 0.36040310569E+01 0.34046652244E+01 0.34047081690E+01 0.36040956824E+01
 0.39882618125E+01 0.45170966169E+01 0.51154502536E+01 0.56371498655E+01 0.58796371727E+01
 0.57870472041E+01 0.55001211801E+01 0.52640796244E+01 0.52642391705E+01 0.55004791208E+01
 0.57851828074E+01 0.54872497501E+01 0.50137431329E+01 0.44845716165E+01 0.39922935203E+01
 0.36040310569E+01 0.33603221644E+01 0.32778649032E+01 0.33603386663E+01 0.36040381034E+01
 0.39922757187E+01 0.44845495377E+01 0.50137475217E+01 0.54872759427E+01 0.57851893472E+01
 0.58796371727E+01 0.58549357729E+01 0.58288302991E+01 0.58549793114E+01 0.58796731562E+01
 0.52141657045E+01 0.48401495886E+01 0.44175152468E+01 0.40032854780E+01 0.36527413655E+01
 0.34046652244E+01 0.32778649032E+01 0.32778925027E+01 0.34046979959E+01 0.36526848112E+01
 0.40031214301E+01 0.44173635215E+01 0.48401641715E+01 0.52143636677E+01 0.54872759427E+01
 0.56371498655E+01 0.56940462450E+01 0.56939985065E+01 0.56369910660E+01 0.54870309052E+01
 0.46003743571E+01 0.43147011510E+01 0.40172004434E+01 0.37468410039E+01 0.35361588028E+01
 0.34047081690E+01 0.33603386663E+01 0.34046979959E+01 0.35361620207E+01 0.37468595213E+01
 0.40172100762E+01 0.43146967387E+01 0.46003812251E+01 0.48401641715E+01 0.50137475217E+01
 0.51154502536E+01 0.51481562264E+01 0.51154291157E+01 0.50137107547E+01 0.48401331514E+01
 0.41812368569E+01 0.40290054820E+01 0.38774050488E+01 0.37467506786E+01 0.36527459979E+01
 0.36040956824E+01 0.36040381034E+01 0.36526848112E+01 0.37468595213E+01 0.38776558455E+01
 0.40291646801E+01 0.41811420930E+01 0.43146967387E+01 0.44173635215E+01 0.44845495377E+01
 0.45170966169E+01 0.45170657030E+01 0.44845503099E+01 0.44175222687E+01 0.43149394155E+01
 0.40338433625E+01 0.40291583390E+01 0.40172230934E+01 0.40031346953E+01 0.39922788949E+01
 0.39882618125E+01 0.39922757187E+01 0.40031214301E+01 0.40172100762E+01 0.40291646801E+01
 0.40338629852E+01 0.40291646801E+01 0.40172100762E+01 0.40031214301E+01 0.39922757187E+01
 0.39882618125E+01 0.39922788949E+01 0.40031346953E+01 0.40172230934E+01 0.40291583390E+01
 0.41812368569E+01 0.43149394155E+01 0.44175222687E+01 0.44845503099E+01 0.45170657030E+01
 0.45170966169E+01 0.44845495377E+01 0.44173635215E+01 0.43146967387E+01 0.41811420930E+01
 0.40291646801E+01 0.38776558455E+01 0.37468595213E+01 0.36526848112E+01 0.36040381034E+01
 0.36040956824E+01 0.36527459979E+01 0.37467506786E+01 0.38774050488E+01 0.40290054820E+01
 0.46003743571E+01 0.48401331514E+01 0.50137107547E+01 0.51154291157E+01 0.51481562264E+01
 0.51154502536E+01 0.50137475217E+01 0.48401641715E+01 0.46003812251E+01 0.43146967387E+01
 0.40172100762E+01 0.37468595213E+01 0.35361620207E+01 0.34046979959E+01 0.33603386663E+01
 0.34047081690E+01 0.35361588028E+01 0.37468410039E+01 0.40172004434E+01 0.43147011510E+01
 0.52141657045E+01 0.54870309052E+01 0.56369910660E+01 0.56939985065E+01 0.56940462450E+01
 0.56371498655E+01 0.54872759427E+01 0.52143636677E+01 0.48401641715E+01 0.44173635215E+01
 0.40031214301E+01 0.36526848112E+01 0.34046979959E+01 0.32778925027E+01 0.32778649032E+01
 0.34046652244E+01 0.36527413655E+01 0.40032854780E+01 0.44175152468E+01 0.48401495886E+01
 0.57851828074E+01 0.58796731562E+01 0.58549793114E+01 0.58288302991E+01 0.58549357729E+01
 0.58796371727E+01 0.57851893472E+01 0.54872759427E+01 0.50137475217E+01 0.44845495377E+01
 0.39922757187E+01 0.36040381034E+01 0.33603386663E+01 0.32778649032E+01 0.33603221644E+01
 0.36040310569E+01 0.39922935203E+01 0.44845716165E+01 0.50137431329E+01 0.54872497501E+01
 0.57873420681E+01 0.55004791208E+01 0.52642391705E+01 0.52640796244E+01 0.55001211801E+01
 0.57870472041E+01 0.58796371727E+01 0.56371498655E+01 0.51154502536E+01 0.45170966169E+01
 0.39882618125E+01 0.36040956824E+01 0.34047081690E+01 0.34046652244E+01 0.36040310569E+01
 0.39882492994E+01 0.45170795326E+01 0.51153446651E+01 0.56370314963E+01 0.58796946094E+01
 0.47872020748E+01 0.40953470933E+01 0.38108723867E+01 0.40954317590E+01 0.47872470383E+01
 0.55001211801E+01 0.58549357729E+01 0.56940462450E+01 0.51481562264E+01 0.45170657030E+01
 0.39922788949E+01 0.36527459979E+01 0.35361588028E+01 0.36527413655E+01 0.39922935203E+01
 0.45170795326E+01 0.51481371550E+01 0.56940325116E+01 0.58549768267E+01 0.55001621630E+01
 0.27770690764E+01 0.19091934389E+01 0.19094918108E+01 0.27776467212E+01 0.40954317590E+01
 0.52640796244E+01 0.58288302991E+01 0.56939985065E+01 0.51154291157E+01 0.44845503099E+01
 0.40031346953E+01 0.37467506786E+01 0.37468410039E+01 0.40032854780E+01 0.44845716165E+01
 0.51153446651E+01 0.56940325116E+01 0.58290539511E+01 0.52642024369E+01 0.40951309514E+01
 0.29533695834E+00 -.33726410095E+00 0.29524536801E+00 0.19094918108E+01 0.38108723867E+01
 0.52642391705E+01 0.58549793114E+01 0.56369910660E+01 0.50137107547E+01 0.44175222687E+01
 0.40172230934E+01 0.38774050488E+01 0.40172004434E+01 0.44175152468E+01 0.50137431329E+01
 0.56370314963E+01 0.58549768267E+01 0.52642024369E+01 0.38108757553E+01 0.19095739588E+01
 -.17602252882E+01 -.17606360828E+01 -.33726410095E+00 0.19091934389E+01 0.40953470933E+01
 0.55004791208E+01 0.58796731562E+01 0.54870309052E+01 0.48401331514E+01 0.43149394155E+01
 0.40291583390E+01 0.40290054820E+01 0.43147011510E+01 0.48401495886E+01 0.54872497501E+01
 0.58796946094E+01 0.55001621630E+01 0.40951309514E+01 0.19095739588E+01 -.33647805540E+00
 -.17602498431E+01 -.33652417300E+00 0.19095446053E+01 0.40951208089E+01 0.55001439935E+01
 0.58796713572E+01 0.54872484166E+01 0.48401641700E+01 0.43147016966E+01 0.40289964430E+01
 0.40291691730E+01 0.43149653859E+01 0.48401443357E+01 0.54870316721E+01 0.58796935392E+01
 0.55005149689E+01 0.40953671563E+01 0.19091972754E+01 -.33725369959E+00 -.17606285349E+01
 -.33652417300E+00 0.14212305084E+01 0.35090859326E+01 0.51388248968E+01 0.58569379089E+01
 0.57039956054E+01 0.50941282742E+01 0.44911417587E+01 0.40840959116E+01 0.39416544568E+01
 0.40841794532E+01 0.44911476411E+01 0.50940498614E+01 0.57040768761E+01 0.58573043209E+01
 0.51391406237E+01 0.35088284461E+01 0.14203672077E+01 -.33732306382E+00 -.10233893387E+01
 0.19095446053E+01 0.35090859326E+01 0.49812416836E+01 0.57900428946E+01 0.57974081286E+01
 0.52626389746E+01 0.46211338521E+01 0.41243514292E+01 0.38579670237E+01 0.38578802215E+01
 0.41241890154E+01 0.46210858167E+01 0.52627787675E+01 0.57976025847E+01 0.57900971122E+01
 0.49811136204E+01 0.35089054216E+01 0.19094359051E+01 0.87127866366E+00 0.87130689419E+00
 0.40951208089E+01 0.51388248968E+01 0.57900428946E+01 0.58199773288E+01 0.53430820868E+01
 0.46992037392E+01 0.41493835147E+01 0.37899642580E+01 0.36659793129E+01 0.37899784097E+01
 0.41493750642E+01 0.46991594884E+01 0.53430097656E+01 0.58198813129E+01 0.57899885699E+01
 0.51389556808E+01 0.40954673875E+01 0.31424186349E+01 0.27583721449E+01 0.31420950321E+01
 0.55001439935E+01 0.58569379089E+01 0.57974081286E+01 0.53430820868E+01 0.47252449786E+01
 0.41614173054E+01 0.37463636912E+01 0.35295124470E+01 0.35296039136E+01 0.37464904620E+01
 0.41613701229E+01 0.47250758247E+01 0.53430174867E+01 0.57975235458E+01 0.58570913588E+01
 0.55001986109E+01 0.49502412733E+01 0.45498587072E+01 0.45498844576E+01 0.49502725062E+01
 0.58796713572E+01 0.57039956054E+01 0.52626389746E+01 0.46992037392E+01 0.41614173054E+01
 0.37316068020E+01 0.34597017906E+01 0.33673453239E+01 0.34596868569E+01 0.37315632430E+01
 0.41613908633E+01 0.46992777746E+01 0.52628021124E+01 0.57041009177E+01 0.58795814936E+01
 0.58014237490E+01 0.56262802806E+01 0.55407063698E+01 0.56264916549E+01 0.58016714418E+01
 0.54872484166E+01 0.50941282742E+01 0.46211338521E+01 0.41493835147E+01 0.37463636912E+01
 0.34597017906E+01 0.33127588470E+01 0.33127341523E+01 0.34596651910E+01 0.37463633862E+01
 0.41493968779E+01 0.46211091846E+01 0.50940774329E+01 0.54872404599E+01 0.57201425900E+01
 0.58000822037E+01 0.58047039177E+01 0.58046612486E+01 0.57999891972E+01 0.57200757989E+01
 0.48401641700E+01 0.44911417587E+01 0.41243514292E+01 0.37899642580E+01 0.35295124470E+01
 0.33673453239E+01 0.33127341523E+01 0.33674162750E+01 0.35295740974E+01 0.37899083556E+01
 0.41241578808E+01 0.44909475121E+01 0.48401522553E+01 0.51283294959E+01 0.53262173047E+01
 0.54289675082E+01 0.54586679429E+01 0.54287686297E+01 0.53259218871E+01 0.51281187721E+01
 0.43147016966E+01 0.40840959116E+01 0.38579670237E+01 0.36659793129E+01 0.35296039136E+01
 0.34596868569E+01 0.34596651910E+01 0.35295740974E+01 0.36659914408E+01 0.38580099290E+01
 0.40841180145E+01 0.43146889625E+01 0.45200074434E+01 0.46790143200E+01 0.47832034628E+01
 0.48335941538E+01 0.48335746377E+01 0.47831634563E+01 0.46789917027E+01 0.45200175264E+01
 0.40289964430E+01 0.39416544568E+01 0.38578802215E+01 0.37899784097E+01 0.37464904620E+01
 0.37315632430E+01 0.37463633862E+01 0.37899083556E+01 0.38580099290E+01 0.39419043757E+01
 0.40291461948E+01 0.41072550141E+01 0.41678168259E+01 0.42082415681E+01 0.42303650934E+01
 0.42372794676E+01 0.42304276627E+01 0.42083986038E+01 0.41680103518E+01 0.41073230759E+01
 0.40291691730E+01 0.40841794532E+01 0.41241890154E+01 0.41493750642E+01 0.41613701229E+01
 0.41613908633E+01 0.41493968779E+01 0.41241578808E+01 0.40841180145E+01 0.40291461948E+01
 0.39625969125E+01 0.38921161246E+01 0.38279998793E+01 0.37799322889E+01 0.37544448055E+01
 0.37544653859E+01 0.37799705937E+01 0.38280095720E+01 0.38920827972E+01 0.39625653644E+01
 0.43149653859E+01 0.44911476411E+01 0.46210858167E+01 0.46991594884E+01 0.47250758247E+01
 0.46992777746E+01 0.46211091846E+01 0.44909475121E+01 0.43146889625E+01 0.41072550141E+01
 0.38921161246E+01 0.36961896924E+01 0.35427161745E+01 0.34464744095E+01 0.34139183342E+01
 0.34464909949E+01 0.35426379409E+01 0.36959974100E+01 0.38919810981E+01 0.41073549097E+01
 0.48401443357E+01 0.50940498614E+01 0.52627787675E+01 0.53430097656E+01 0.53430174867E+01
 0.52628021124E+01 0.50940774329E+01 0.48401522553E+01 0.45200074434E+01 0.41678168259E+01
 0.38279998793E+01 0.35427161745E+01 0.33414470693E+01 0.32386305561E+01 0.32386348283E+01
 0.33414487431E+01 0.35427064885E+01 0.38279960687E+01 0.41678332915E+01 0.45200246602E+01
 0.54870316721E+01 0.57040768761E+01 0.57976025847E+01 0.58198813129E+01 0.57975235458E+01
 0.57041009177E+01 0.54872404599E+01 0.51283294959E+01 0.46790143200E+01 0.42082415681E+01
 0.37799322889E+01 0.34464744095E+01 0.32386305561E+01 0.31684886590E+01 0.32385824524E+01
 0.34464999656E+01 0.37800884467E+01 0.42083964040E+01 0.46789780400E+01 0.51281011626E+01
 0.58796935392E+01 0.58573043209E+01 0.57900971122E+01 0.57899885699E+01 0.58570913588E+01
 0.58795814936E+01 0.57201425900E+01 0.53262173047E+01 0.47832034628E+01 0.42303650934E+01
 0.37544448055E+01 0.34139183342E+01 0.32386348283E+01 0.32385824524E+01 0.34138372275E+01
 0.37544485088E+01 0.42304319474E+01 0.47832093101E+01 0.53261292104E+01 0.57200906940E+01
 0.55005149689E+01 0.51391406237E+01 0.49811136204E+01 0.51389556808E+01 0.55001986109E+01
 0.58014237490E+01 0.58000822037E+01 0.54289675082E+01 0.48335941538E+01 0.42372794676E+01
 0.37544653859E+01 0.34464909949E+01 0.33414487431E+01 0.34464999656E+01 0.37544485088E+01
 0.42371833193E+01 0.48334311533E+01 0.54288704518E+01 0.58001921029E+01 0.58017209485E+01
 0.40953671563E+01 0.35088284461E+01 0.35089054216E+01 0.40954673875E+01 0.49502412733E+01
 0.56262802806E+01 0.58047039177E+01 0.54586679429E+01 0.48335746377E+01 0.42304276627E+01
 0.37799705937E+01 0.35426379409E+01 0.35427064885E+01 0.37800884467E+01 0.42304319474E+01
 0.48334311533E+01 0.54585400066E+01 0.58047563738E+01 0.56264459917E+01 0.49503018001E+01
 0.19091972754E+01 0.14203672077E+01 0.19094359051E+01 0.31424186349E+01 0.45498587072E+01
 0.55407063698E+01 0.58046612486E+01 0.54287686297E+01 0.47831634563E+01 0.42083986038E+01
 0.38280095720E+01 0.36959974100E+01 0.38279960687E+01 0.42083964040E+01 0.47832093101E+01
 0.54288704518E+01 0.58047563738E+01 0.55406819810E+01 0.45496508971E+01 0.31421017902E+01
 -.33725369959E+00 -.33732306382E+00 0.87127866366E+00 0.27583721449E+01 0.45498844576E+01
 0.56264916549E+01 0.57999891972E+01 0.53259218871E+01 0.46789917027E+01 0.41680103518E+01
 0.38920827972E+01 0.38919810981E+01 0.41678332915E+01 0.46789780400E+01 0.53261292104E+01
 0.58001921029E+01 0.56264459917E+01 0.45496508971E+01 0.27582332185E+01 0.87133971799E+00
 -.17606285349E+01 -.10233893387E+01 0.87130689419E+00 0.31420950321E+01 0.49502725062E+01
 0.58016714418E+01 0.57200757989E+01 0.51281187721E+01 0.45200175264E+01 0.41073230759E+01
 0.39625653644E+01 0.41073549097E+01 0.45200246602E+01 0.51281011626E+01 0.57200906940E+01
 0.58017209485E+01 0.49503018001E+01 0.31421017902E+01 0.87133971799E+00 -.10233409663E+01
 0.29528648377E+00 0.19095093587E+01 0.38108558892E+01 0.52642152274E+01 0.58549695227E+01
 0.56370134615E+01 0.50137599532E+01 0.44175509474E+01 0.40172058329E+01 0.38773950224E+01
 0.40172465946E+01 0.44175638708E+01 0.50137207304E+01 0.56369843602E+01 0.58550054411E+01
 0.52642819288E+01 0.38108778689E+01 0.19094678209E+01 0.29523571402E+00 -.33727359544E+00
 0.19095093587E+01 0.35090560281E+01 0.49812419427E+01 0.57900599224E+01 0.57974143057E+01
 0.52626407704E+01 0.46211521689E+01 0.41243758314E+01 0.38579753122E+01 0.38578826910E+01
 0.41242075834E+01 0.46211094445E+01 0.52627846698E+01 0.57976010172E+01 0.57901096647E+01
 0.49811273782E+01 0.35088941039E+01 0.19094069130E+01 0.87125516362E+00 0.87128427752E+00
 0.38108558892E+01 0.49812419427E+01 0.57473752207E+01 0.58536886242E+01 0.54078924782E+01
 0.47623395214E+01 0.42043786564E+01 0.38381896248E+01 0.37116135839E+01 0.38381758038E+01
 0.42043636553E+01 0.47623483498E+01 0.54079235695E+01 0.58536948740E+01 0.57473374743E+01
 0.49812260795E+01 0.38109228194E+01 0.27583104531E+01 0.23365710147E+01 0.27582200398E+01
 0.52642152274E+01 0.57900599224E+01 0.58536886242E+01 0.54543417200E+01 0.48341440777E+01
 0.42533939485E+01 0.38226364517E+01 0.35966297990E+01 0.35967148831E+01 0.38227884303E+01
 0.42534423318E+01 0.48340513157E+01 0.54541960267E+01 0.58535888408E+01 0.57900860718E+01
 0.52644078884E+01 0.45499407448E+01 0.40476201789E+01 0.40474919437E+01 0.45496743387E+01
 0.58549695227E+01 0.57974143057E+01 0.54078924782E+01 0.48341440777E+01 0.42699332605E+01
 0.38144911832E+01 0.35247154280E+01 0.34260341789E+01 0.35247465933E+01 0.38145019797E+01
 0.42699176017E+01 0.48341500157E+01 0.54079301930E+01 0.57974392374E+01 0.58549653774E+01
 0.56264347974E+01 0.53250318293E+01 0.51901034854E+01 0.53250195575E+01 0.56264356757E+01
 0.56370134615E+01 0.52626407704E+01 0.47623395214E+01 0.42533939485E+01 0.38144911832E+01
 0.35005200822E+01 0.33390354507E+01 0.33389836542E+01 0.35004105337E+01 0.38144269953E+01
 0.42534564438E+01 0.47625142775E+01 0.52628065339E+01 0.56370233104E+01 0.57999677081E+01
 0.57923849034E+01 0.57373282084E+01 0.57374478387E+01 0.57926428640E+01 0.58001561276E+01
 0.50137599532E+01 0.46211521689E+01 0.42043786564E+01 0.38226364517E+01 0.35247154280E+01
 0.33390354507E+01 0.32764376015E+01 0.33390304090E+01 0.35247222497E+01 0.38226414675E+01
 0.42043532295E+01 0.46211131336E+01 0.50137478295E+01 0.53261427074E+01 0.55145132005E+01
 0.55939432339E+01 0.56122507110E+01 0.55939743969E+01 0.55145288392E+01 0.53261359757E+01
 0.44175509474E+01 0.41243758314E+01 0.38381896248E+01 0.35966297990E+01 0.34260341789E+01
 0.33389836542E+01 0.33390304090E+01 0.34261428522E+01 0.35967033796E+01 0.38381188230E+01
 0.41241640757E+01 0.44173550647E+01 0.46790007916E+01 0.48811632222E+01 0.50124533217E+01
 0.50740600808E+01 0.50739688555E+01 0.50122425023E+01 0.48809920071E+01 0.46790157615E+01
 0.40172058329E+01 0.38579753122E+01 0.37116135839E+01 0.35967148831E+01 0.35247465933E+01
 0.35004105337E+01 0.35247222497E+01 0.35967033796E+01 0.37116345559E+01 0.38580035053E+01
 0.40172077552E+01 0.41678090367E+01 0.42920731697E+01 0.43805202446E+01 0.44317590014E+01
 0.44483145996E+01 0.44317437918E+01 0.43805124507E+01 0.42920881120E+01 0.41678307003E+01
 0.38773950224E+01 0.38578826910E+01 0.38381758038E+01 0.38227884303E+01 0.38145019797E+01
 0.38144269953E+01 0.38226414675E+01 0.38381188230E+01 0.38580035053E+01 0.38776109167E+01
 0.38920828916E+01 0.38988063608E+01 0.38986578747E+01 0.38951245396E+01 0.38921539101E+01
 0.38922105228E+01 0.38952735938E+01 0.38988175706E+01 0.38988495859E+01 0.38919487846E+01
 0.40172465946E+01 0.41242075834E+01 0.42043636553E+01 0.42534423318E+01 0.42699176017E+01
 0.42534564438E+01 0.42043532295E+01 0.41241640757E+01 0.40172077552E+01 0.38920828916E+01
 0.37618876883E+01 0.36421662466E+01 0.35472068736E+01 0.34869540376E+01 0.34664100057E+01
 0.34869547035E+01 0.35472123610E+01 0.36421694275E+01 0.37618839064E+01 0.38920919299E+01
 0.44175638708E+01 0.46211094445E+01 0.47623483498E+01 0.48340513157E+01 0.48341500157E+01
 0.47625142775E+01 0.46211131336E+01 0.44173550647E+01 0.41678090367E+01 0.38988063608E+01
 0.36421662466E+01 0.34276286679E+01 0.32762863299E+01 0.31988712737E+01 0.31988578691E+01
 0.32762208222E+01 0.34275033741E+01 0.36420777120E+01 0.38988871433E+01 0.41680504307E+01
 0.50137207304E+01 0.52627846698E+01 0.54079235695E+01 0.54541960267E+01 0.54079301930E+01
 0.52628065339E+01 0.50137478295E+01 0.46790007916E+01 0.42920731697E+01 0.38986578747E+01
 0.35472068736E+01 0.32762863299E+01 0.31082265688E+01 0.30516422559E+01 0.31082335516E+01
 0.32762887876E+01 0.35472068080E+01 0.38986669302E+01 0.42920835257E+01 0.46789914978E+01
 0.56369843602E+01 0.57976010172E+01 0.58536948740E+01 0.58535888408E+01 0.57974392374E+01
 0.56370233104E+01 0.53261427074E+01 0.48811632222E+01 0.43805202446E+01 0.38951245396E+01
 0.34869540376E+01 0.31988712737E+01 0.30516422559E+01 0.30516101832E+01 0.31988506481E+01
 0.34870481372E+01 0.38952713880E+01 0.43805224286E+01 0.48809452274E+01 0.53258920276E+01
 0.58550054411E+01 0.57901096647E+01 0.57473374743E+01 0.57900860718E+01 0.58549653774E+01
 0.57999677081E+01 0.55145132005E+01 0.50124533217E+01 0.44317590014E+01 0.38921539101E+01
 0.34664100057E+01 0.31988578691E+01 0.31082335516E+01 0.31988506481E+01 0.34664051950E+01
 0.38921495096E+01 0.44317447866E+01 0.50124378204E+01 0.55145195299E+01 0.58000017268E+01
 0.52642819288E+01 0.49811273782E+01 0.49812260795E+01 0.52644078884E+01 0.56264347974E+01
 0.57923849034E+01 0.55939432339E+01 0.50740600808E+01 0.44483145996E+01 0.38922105228E+01
 0.34869547035E+01 0.32762208222E+01 0.32762887876E+01 0.34870481372E+01 0.38921495096E+01
 0.44481169883E+01 0.50739656907E+01 0.55941165979E+01 0.57926712569E+01 0.56265372684E+01
 0.38108778689E+01 0.35088941039E+01 0.38109228194E+01 0.45499407448E+01 0.53250318293E+01
 0.57373282084E+01 0.56122507110E+01 0.50739688555E+01 0.44317437918E+01 0.38952735938E+01
 0.35472123610E+01 0.34275033741E+01 0.35472068080E+01 0.38952713880E+01 0.44317447866E+01
 0.50739656907E+01 0.56122441491E+01 0.57373195331E+01 0.53250067712E+01 0.45498916364E+01
 0.19094678209E+01 0.19094069130E+01 0.27583104531E+01 0.40476201789E+01 0.51901034854E+01
 0.57374478387E+01 0.55939743969E+01 0.50122425023E+01 0.43805124507E+01 0.38988175706E+01
 0.36421694275E+01 0.36420777120E+01 0.38986669302E+01 0.43805224286E+01 0.50124378204E+01
 0.55941165979E+01 0.57373195331E+01 0.51898020586E+01 0.40474395382E+01 0.27583480558E+01
 0.29523571402E+00 0.87125516362E+00 0.23365710147E+01 0.40474919437E+01 0.53250195575E+01
 0.57926428640E+01 0.55145288392E+01 0.48809920071E+01 0.42920881120E+01 0.38988495859E+01
 0.37618839064E+01 0.38988871433E+01 0.42920835257E+01 0.48809452274E+01 0.55145195299E+01
 0.57926712569E+01 0.53250067712E+01 0.40474395382E+01 0.23365608026E+01 0.87128924408E+00
 -.33727359544E+00 0.87128427752E+00 0.27582200398E+01 0.45496743387E+01 0.56264356757E+01
 0.58001561276E+01 0.53261359757E+01 0.46790157615E+01 0.41678307003E+01 0.38919487846E+01
 0.38920919299E+01 0.41680504307E+01 0.46789914978E+01 0.53258920276E+01 0.58000017268E+01
 0.56265372684E+01 0.45498916364E+01 0.27583480558E+01 0.87128924408E+00 -.33729224155E+00
 0.27770402265E+01 0.40950964786E+01 0.52642183992E+01 0.58290915111E+01 0.56940314363E+01
 0.51153270349E+01 0.44845921242E+01 0.40033195749E+01 0.37468340323E+01 0.37467280702E+01
 0.40031516522E+01 0.44845814636E+01 0.51154193147E+01 0.56939734493E+01 0.58288453185E+01
 0.52641080226E+01 0.40954152927E+01 0.27776080343E+01 0.19094865286E+01 0.19092006858E+01
 0.40950964786E+01 0.51388139211E+01 0.57900730434E+01 0.58200187192E+01 0.53430948479E+01
 0.46992064936E+01 0.41494099448E+01 0.37899946066E+01 0.36659811284E+01 0.37899724766E+01
 0.41493937687E+01 0.46991813768E+01 0.53430018298E+01 0.58198642900E+01 0.57899936844E+01
 0.51389585522E+01 0.40954321845E+01 0.31423673957E+01 0.27583446394E+01 0.31420809497E+01
 0.52642183992E+01 0.57900730434E+01 0.58537172608E+01 0.54543688952E+01 0.48341545132E+01
 0.42533990620E+01 0.38226505806E+01 0.35966430876E+01 0.35967146112E+01 0.38227849826E+01
 0.42534480952E+01 0.48340553841E+01 0.54541855592E+01 0.58535739990E+01 0.57900782085E+01
 0.52643949646E+01 0.45499108439E+01 0.40475884723E+01 0.40474783110E+01 0.45496744920E+01
 0.58290915111E+01 0.58200187192E+01 0.54543688952E+01 0.48799491863E+01 0.43071475313E+01
 0.38431722843E+01 0.35473639714E+01 0.34464987444E+01 0.35473747517E+01 0.38432558771E+01
 0.43072896000E+01 0.48799895751E+01 0.54541697306E+01 0.58197061110E+01 0.58289956022E+01
 0.55409855237E+01 0.51901899693E+01 0.50359213350E+01 0.51898653811E+01 0.55407275372E+01
 0.56940314363E+01 0.53430948479E+01 0.48341545132E+01 0.43071475313E+01 0.38501283842E+01
 0.35221730300E+01 0.33531970221E+01 0.33531454157E+01 0.35221060432E+01 0.38501818771E+01
 0.43072994903E+01 0.48342287606E+01 0.53429882699E+01 0.56938599509E+01 0.58047054477E+01
 0.57374258126E+01 0.56427069828E+01 0.56426395325E+01 0.57373311554E+01 0.58047519865E+01
 0.51153270349E+01 0.46992064936E+01 0.42533990620E+01 0.38431722843E+01 0.35221730300E+01
 0.33217728861E+01 0.32541382280E+01 0.33217224711E+01 0.35221119732E+01 0.38431522793E+01
 0.42534613498E+01 0.46993482922E+01 0.51154541184E+01 0.54288069565E+01 0.55938747576E+01
 0.56452118011E+01 0.56513141154E+01 0.56454276091E+01 0.55940882647E+01 0.54288370155E+01
 0.44845921242E+01 0.41494099448E+01 0.38226505806E+01 0.35473639714E+01 0.33531970221E+01
 0.32541382280E+01 0.32541340060E+01 0.33532002503E+01 0.35473832878E+01 0.38226573537E+01
 0.41493906269E+01 0.44845756124E+01 0.47832094361E+01 0.50123992166E+01 0.51550181460E+01
 0.52177184994E+01 0.52177661173E+01 0.51551055522E+01 0.50124459769E+01 0.47832186951E+01
 0.40033195749E+01 0.37899946066E+01 0.35966430876E+01 0.34464987444E+01 0.33531454157E+01
 0.33217224711E+01 0.33532002503E+01 0.34465985689E+01 0.35967153844E+01 0.37899405638E+01
 0.40031400737E+01 0.42082585489E+01 0.43805332610E+01 0.45051634728E+01 0.45782555094E+01
 0.46019923969E+01 0.45781372034E+01 0.45050504725E+01 0.43805587198E+01 0.42084286344E+01
 0.37468340323E+01 0.36659811284E+01 0.35967146112E+01 0.35473747517E+01 0.35221060432E+01
 0.35221119732E+01 0.35473832878E+01 0.35967153844E+01 0.36659829389E+01 0.37468501396E+01
 0.38280036218E+01 0.38986682695E+01 0.39520110028E+01 0.39861354657E+01 0.40023639816E+01
 0.40023714283E+01 0.39861518817E+01 0.39520207436E+01 0.38986583501E+01 0.38279804670E+01
 0.37467280702E+01 0.37899724766E+01 0.38227849826E+01 0.38432558771E+01 0.38501818771E+01
 0.38431522793E+01 0.38226573537E+01 0.37899405638E+01 0.37468501396E+01 0.36961507945E+01
 0.36421528189E+01 0.35907946434E+01 0.35485964661E+01 0.35210477453E+01 0.35115343574E+01
 0.35211386027E+01 0.35487117830E+01 0.35908244865E+01 0.36420346093E+01 0.36959549885E+01
 0.40031516522E+01 0.41493937687E+01 0.42534480952E+01 0.43072896000E+01 0.43072994903E+01
 0.42534613498E+01 0.41493906269E+01 0.40031400737E+01 0.38280036218E+01 0.36421528189E+01
 0.34662369002E+01 0.33193602556E+01 0.32154312960E+01 0.31620429611E+01 0.31620273989E+01
 0.32154081783E+01 0.33193613692E+01 0.34662552274E+01 0.36421655704E+01 0.38280117875E+01
 0.44845814636E+01 0.46991813768E+01 0.48340553841E+01 0.48799895751E+01 0.48342287606E+01
 0.46993482922E+01 0.44845756124E+01 0.42082585489E+01 0.38986682695E+01 0.35907946434E+01
 0.33193602556E+01 0.31113849434E+01 0.29825796897E+01 0.29391921547E+01 0.29825323384E+01
 0.31113057691E+01 0.33193100454E+01 0.35908544080E+01 0.38988429621E+01 0.42084250701E+01
 0.51154193147E+01 0.53430018298E+01 0.54541855592E+01 0.54541697306E+01 0.53429882699E+01
 0.51154541184E+01 0.47832094361E+01 0.43805332610E+01 0.39520110028E+01 0.35485964661E+01
 0.32154312960E+01 0.29825796897E+01 0.28641275523E+01 0.28641233945E+01 0.29825741716E+01
 0.32154393402E+01 0.35486190172E+01 0.39520181261E+01 0.43804936750E+01 0.47831433383E+01
 0.56939734493E+01 0.58198642900E+01 0.58535739990E+01 0.58197061110E+01 0.56938599509E+01
 0.54288069565E+01 0.50123992166E+01 0.45051634728E+01 0.39861354657E+01 0.35210477453E+01
 0.31620429611E+01 0.29391921547E+01 0.28641233945E+01 0.29392008205E+01 0.31620934703E+01
 0.35211219539E+01 0.39861340567E+01 0.45050152255E+01 0.50121896850E+01 0.54287230736E+01
 0.58288453185E+01 0.57899936844E+01 0.57900782085E+01 0.58289956022E+01 0.58047054477E+01
 0.55938747576E+01 0.51550181460E+01 0.45782555094E+01 0.40023639816E+01 0.35115343574E+01
 0.31620273989E+01 0.29825323384E+01 0.29825741716E+01 0.31620934703E+01 0.35115299660E+01
 0.40022964073E+01 0.45782342179E+01 0.51550991318E+01 0.55939605611E+01 0.58046621589E+01
 0.52641080226E+01 0.51389585522E+01 0.52643949646E+01 0.55409855237E+01 0.57374258126E+01
 0.56452118011E+01 0.52177184994E+01 0.46019923969E+01 0.40023714283E+01 0.35211386027E+01
 0.32154081783E+01 0.31113057691E+01 0.32154393402E+01 0.35211219539E+01 0.40022964073E+01
 0.46019861379E+01 0.52178893677E+01 0.56454474988E+01 0.57374624462E+01 0.55407341803E+01
 0.40954152927E+01 0.40954321845E+01 0.45499108439E+01 0.51901899693E+01 0.56427069828E+01
 0.56513141154E+01 0.52177661173E+01 0.45781372034E+01 0.39861518817E+01 0.35487117830E+01
 0.33193613692E+01 0.33193100454E+01 0.35486190172E+01 0.39861340567E+01 0.45782342179E+01
 0.52178893677E+01 0.56513427899E+01 0.56426208622E+01 0.51900747713E+01 0.45498436963E+01
 0.27776080343E+01 0.31423673957E+01 0.40475884723E+01 0.50359213350E+01 0.56426395325E+01
 0.56454276091E+01 0.51551055522E+01 0.45050504725E+01 0.39520207436E+01 0.35908244865E+01
 0.34662552274E+01 0.35908544080E+01 0.39520181261E+01 0.45050152255E+01 0.51550991318E+01
 0.56454474988E+01 0.56426208622E+01 0.50358651974E+01 0.40475636418E+01 0.31423829275E+01
 0.19094865286E+01 0.27583446394E+01 0.40474783110E+01 0.51898653811E+01 0.57373311554E+01
 0.55940882647E+01 0.50124459769E+01 0.43805587198E+01 0.38986583501E+01 0.36420346093E+01
 0.36421655704E+01 0.38988429621E+01 0.43804936750E+01 0.50121896850E+01 0.55939605611E+01
 0.57374624462E+01 0.51900747713E+01 0.40475636418E+01 0.27583069566E+01 0.19094515068E+01
 0.19092006858E+01 0.31420809497E+01 0.45496744920E+01 0.55407275372E+01 0.58047519865E+01
 0.54288370155E+01 0.47832186951E+01 0.42084286344E+01 0.38279804670E+01 0.36959549885E+01
 0.38280117875E+01 0.42084250701E+01 0.47831433383E+01 0.54287230736E+01 0.58046621589E+01
 0.55407341803E+01 0.45498436963E+01 0.31423829275E+01 0.19094515068E+01 0.14204131063E+01
 0.47871971747E+01 0.55001429849E+01 0.58549932597E+01 0.56940540405E+01 0.51481148127E+01
 0.45170460060E+01 0.39923002440E+01 0.36527576801E+01 0.35361346056E+01 0.36527127448E+01
 0.39922872720E+01 0.45170848812E+01 0.51481363164E+01 0.56940190903E+01 0.58549524893E+01
 0.55001512297E+01 0.47872403147E+01 0.40954189214E+01 0.38109022097E+01 0.40953859722E+01
 0.55001429849E+01 0.58569400685E+01 0.57974400762E+01 0.53431117133E+01 0.47252381859E+01
 0.41614032027E+01 0.37463775712E+01 0.35295281573E+01 0.35295885574E+01 0.37464712192E+01