    1    1    1    1
  0.1482975E+02  0.2757716E-09  0.2757716E-09  0.2757716E-09  0.5000000E-15
  1.000000000000000E-004
  CAR 
 FCC Silicon                             
      4    120     16
 
  0.0000000E+00  0.0000000E+00  0.0000000E+00  0.2962963E-03
    1       -4.378648   1.000000
    2       20.693914   0.000000
    3       20.694093   0.000000
    4       20.694093   0.000000
    5       21.770492   0.000000
    6       21.770608   0.000000
    7       21.770608   0.000000
    8       26.978045   0.000000
    9       28.575038   0.000000
   10       28.575038   0.000000
   11       31.694804   0.000000
   12       34.883355   0.000000
   13       34.883355   0.000000
   14       34.883440   0.000000
   15       41.999351   0.000000
   16       62.821204   0.000000
 
  0.6666667E-01  0.0000000E+00  0.0000000E+00  0.2370370E-02
    1       -4.251067   1.000000
    2       18.711054   0.000000
    3       20.121968   0.000000
    4       20.122135   0.000000
    5       22.531011   0.000000
    6       22.531149   0.000000
    7       22.689414   0.000000
    8       28.005894   0.000000
    9       28.005896   0.000000
   10       28.021294   0.000000
   11       31.479888   0.000000
   12       35.068448   0.000000
   13       35.794586   0.000000
   14       35.794662   0.000000
   15       42.736069   0.000000
   16       61.446495   0.000000
 
  0.1333333E+00  0.0000000E+00  0.0000000E+00  0.2370370E-02
    1       -3.869664   1.000000
    2       15.942988   0.000000
    3       19.390407   0.000000
    4       19.390576   0.000000
    5       22.948539   0.000000
    6       23.580570   0.000000
    7       23.580946   0.000000
    8       26.972919   0.000000
    9       26.973231   0.000000
   10       30.185640   0.000000
   11       30.805735   0.000000
   12       36.142376   0.000000
   13       37.892091   0.000000
   14       37.892169   0.000000
   15       44.601484   0.000000
   16       57.938108   0.000000
 
  0.2000000E+00  0.0000000E+00  0.0000000E+00  0.2370370E-02
    1       -3.235758   1.000000
    2       13.155918   0.000000
    3       18.820674   0.000000
    4       18.820847   0.000000
    5       22.866623   0.000000
    6       23.826590   0.000000
    7       23.827314   0.000000
    8       26.918575   0.000000
    9       26.919322   0.000000
   10       29.397485   0.000000
   11       32.838218   0.000000
   12       38.390369   0.000000
   13       40.539661   0.000000
   14       40.539787   0.000000
   15       47.118899   0.000000
   16       54.152359   0.000000
 
  0.2666667E+00  0.0000000E+00  0.0000000E+00  0.2370370E-02
    1       -2.352009   1.000000
    2       10.496003   0.000000
    3       18.438365   0.000000
    4       18.438537   0.000000
    5       22.764445   0.000000
    6       22.975765   0.000000
    7       22.976449   0.000000
    8       28.140998   0.000000
    9       28.276882   0.000000
   10       28.277767   0.000000
   11       35.105612   0.000000
   12       41.525495   0.000000
   13       43.395950   0.000000
   14       43.396317   0.000000
   15       49.962554   0.000000
   16       50.632121   0.000000
 
  0.3333333E+00  0.0000000E+00  0.0000000E+00  0.2370370E-02
    1       -1.221563   1.000000
    2        8.014867   1.000000
    3       18.237700   0.000000
    4       18.237850   0.000000
    5       22.002375   0.000000
    6       22.002939   0.000000
    7       22.770108   0.000000
    8       27.008860   0.000000
    9       30.189395   0.000000
   10       30.190430   0.000000
   11       37.250562   0.000000
   12       45.191947   0.000000
   13       45.209368   0.000000
   14       45.210571   0.000000
   15       48.775551   0.000000
   16       48.776389   0.000000
 
  0.4000000E+00  0.0000000E+00  0.0000000E+00  0.2370370E-02
    1        0.147029   1.000000
    2        5.736664   1.000000
    3       18.174880   0.000000
    4       18.175013   0.000000
    5       21.228665   0.000000
    6       21.229226   0.000000
    7       22.859195   0.000000
    8       26.116559   0.000000
    9       32.189485   0.000000
   10       32.190750   0.000000
   11       39.200256   0.000000
   12       43.286104   0.000000
   13       43.286661   0.000000
   14       48.809553   0.000000
   15       50.780352   0.000000
   16       51.218590   0.000000
 
  0.4666667E+00  0.0000000E+00  0.0000000E+00  0.2370370E-02
    1        1.716696   1.000000
    2        3.709848   1.000000
    3       18.184584   0.000000
    4       18.184701   0.000000
    5       20.791956   0.000000
    6       20.792525   0.000000
    7       22.961491   0.000000
    8       25.595517   0.000000
    9       33.823016   0.000000
   10       33.824512   0.000000
   11       40.572179   0.000000
   12       41.350690   0.000000
   13       41.350698   0.000000
   14       48.814415   0.000000
   15       52.755858   0.000000
   16       54.363124   0.000000
 
  0.6666667E-01  0.6666667E-01  0.0000000E+00  0.1777778E-02
    1       -4.208561   1.000000
    2       19.167425   0.000000
    3       19.167536   0.000000
    4       20.292213   0.000000
    5       20.888775   0.000000
    6       23.559201   0.000000
    7       23.559215   0.000000
    8       26.871239   0.000000
    9       28.255455   0.000000
   10       28.765314   0.000000
   11       31.926088   0.000000
   12       35.132027   0.000000
   13       35.132076   0.000000
   14       36.404934   0.000000
   15       43.074773   0.000000
   16       61.101915   0.000000
 
  0.1333333E+00  0.6666667E-01  0.0000000E+00  0.7111111E-02
    1       -3.911950   1.000000
    2       16.932872   0.000000
    3       18.344422   0.000000
    4       19.838967   0.000000
    5       21.282799   0.000000
    6       24.248725   0.000000
    7       24.683723   0.000000
    8       25.402055   0.000000
    9       28.406311   0.000000
   10       30.031158   0.000000
   11       31.848247   0.000000
   12       35.808463   0.000000
   13       36.250511   0.000000
   14       38.002835   0.000000
   15       44.724369   0.000000
   16       58.013707   0.000000
 
  0.2000000E+00  0.6666667E-01  0.0000000E+00  0.7111111E-02
    1       -3.362242   1.000000
    2       14.162617   0.000000
    3       17.716777   0.000000
    4       19.218855   0.000000
    5       21.973800   0.000000
    6       24.072312   0.000000
    7       24.883961   0.000000
    8       25.305420   0.000000
    9       28.135691   0.000000
   10       30.740852   0.000000
   11       32.594392   0.000000
   12       37.678876   0.000000
   13       38.512139   0.000000
   14       40.398975   0.000000
   15       47.118485   0.000000
   16       54.125710   0.000000
 
  0.2666667E+00  0.6666667E-01  0.0000000E+00  0.7111111E-02
    1       -2.561826   1.000000
    2       11.463912   0.000000
    3       17.296192   0.000000
    4       18.697664   0.000000
    5       21.484326   0.000000
    6       23.835952   0.000000
    7       24.684543   0.000000
    8       25.888603   0.000000
    9       29.183537   0.000000
   10       29.573576   0.000000
   11       34.911958   0.000000
   12       40.533782   0.000000
   13       41.255441   0.000000
   14       43.192576   0.000000
   15       49.904787   0.000000
   16       50.415825   0.000000
 
  0.3333333E+00  0.6666667E-01  0.0000000E+00  0.7111111E-02
    1       -1.513825   1.000000
    2        8.923293   1.000000
    3       17.088083   0.000000
    4       18.247786   0.000000
    5       20.666659   0.000000
    6       23.673632   0.000000
    7       23.799414   0.000000
    8       27.449841   0.000000
    9       28.644373   0.000000
   10       30.926924   0.000000
   11       37.102902   0.000000
   12       43.808812   0.000000
   13       43.938038   0.000000
   14       45.814446   0.000000
   15       47.584379   0.000000
   16       49.635424   0.000000
 
  0.4000000E+00  0.6666667E-01  0.0000000E+00  0.7111111E-02
    1       -0.223364   1.000000
    2        6.577395   1.000000
    3       17.086344   0.000000
    4       17.779091   0.000000
    5       20.145567   0.000000
    6       22.731267   0.000000
    7       23.829099   0.000000
    8       27.326270   0.000000
    9       29.924490   0.000000
   10       32.786909   0.000000
   11       39.150921   0.000000
   12       43.035562   0.000000
   13       44.720512   0.000000
   14       47.782641   0.000000
   15       48.862129   0.000000
   16       51.023091   0.000000
 
  0.4666667E+00  0.6666667E-01  0.0000000E+00  0.7111111E-02
    1        1.289907   1.000000
    2        4.456018   1.000000
    3       17.265879   0.000000
    4       17.279813   0.000000
    5       20.088955   0.000000
    6       21.966210   0.000000
    7       23.843332   0.000000
    8       26.805981   0.000000
    9       31.944114   0.000000
   10       34.105495   0.000000
   11       40.750751   0.000000
   12       41.336426   0.000000
   13       42.372366   0.000000
   14       49.778822   0.000000
   15       51.658633   0.000000
   16       52.184722   0.000000
 
 -0.4666667E+00  0.6666667E-01  0.0000000E+00  0.7111111E-02
    1        2.315262   1.000000
    2        3.277749   1.000000
    3       16.804804   0.000000
    4       17.645761   0.000000
    5       20.406261   0.000000
    6       21.457554   0.000000
    7       23.776445   0.000000
    8       26.720327   0.000000
    9       33.392362   0.000000
   10       33.565504   0.000000
   11       40.544447   0.000000
   12       41.573419   0.000000
   13       41.665669   0.000000
   14       49.281790   0.000000
   15       52.916401   0.000000
   16       54.082141   0.000000
 
 -0.4000000E+00  0.6666667E-01  0.0000000E+00  0.7111111E-02
    1        0.763474   1.000000
    2        5.134537   1.000000
    3       16.483150   0.000000
    4       18.148395   0.000000
    5       21.039208   0.000000
    6       21.267384   0.000000
    7       23.642117   0.000000
    8       27.099805   0.000000
    9       31.728461   0.000000
   10       33.178452   0.000000
   11       40.362147   0.000000
   12       41.313170   0.000000
   13       43.748668   0.000000
   14       49.445591   0.000000
   15       50.670140   0.000000
   16       51.379185   0.000000
 
 -0.3333333E+00  0.6666667E-01  0.0000000E+00  0.7111111E-02
    1       -0.680146   1.000000
    2        7.335600   1.000000
    3       16.344968   0.000000
    4       18.702997   0.000000
    5       21.431908   0.000000
    6       21.910862   0.000000
    7       23.507336   0.000000
    8       27.813308   0.000000
    9       29.576676   0.000000
   10       31.625483   0.000000
   11       38.594350   0.000000
   12       43.146351   0.000000
   13       46.215373   0.000000
   14       46.386900   0.000000
   15       47.636750   0.000000
   16       50.745405   0.000000
 
 -0.2666667E+00  0.6666667E-01  0.0000000E+00  0.7111111E-02
    1       -1.890615   1.000000
    2        9.749497   0.918233
    3       16.413835   0.000000
    4       19.245454   0.000000
    5       21.985453   0.000000
    6       22.970795   0.000000
    7       23.450956   0.000000
    8       27.525792   0.000000
    9       28.456187   0.000000
   10       30.131110   0.000000
   11       36.477060   0.000000
   12       42.458501   0.000000
   13       42.980730   0.000000
   14       45.771352   0.000000
   15       47.765215   0.000000
   16       51.088451   0.000000
 
 -0.2000000E+00  0.6666667E-01  0.0000000E+00  0.7111111E-02
    1       -2.856331   1.000000
    2       12.347952   0.000000
    3       16.691745   0.000000
    4       19.787346   0.000000
    5       22.764454   0.000000
    6       23.463944   0.000000
    7       24.112102   0.000000
    8       25.891405   0.000000
    9       27.682140   0.000000
   10       30.435495   0.000000
   11       34.226869   0.000000
   12       39.491261   0.000000
   13       39.906273   0.000000
   14       42.985180   0.000000
   15       48.709949   0.000000
   16       50.985980   0.000000
 
 -0.1333333E+00  0.6666667E-01  0.0000000E+00  0.7111111E-02
    1       -3.573467   1.000000
    2       15.089096   0.000000
    3       17.183080   0.000000
    4       20.365049   0.000000
    5       22.857142   0.000000
    6       23.422979   0.000000
    7       24.700480   0.000000
    8       25.532663   0.000000
    9       27.051216   0.000000
   10       31.238487   0.000000
   11       31.972255   0.000000
   12       36.781911   0.000000
   13       37.564695   0.000000
   14       40.186610   0.000000
   15       46.039473   0.000000
   16       54.702380   0.000000
 
 -0.6666667E-01  0.6666667E-01  0.0000000E+00  0.3555556E-02
    1       -4.039056   1.000000
    2       17.766988   0.000000
    3       17.952191   0.000000
    4       20.765945   0.000000
    5       22.125072   0.000000
    6       23.070118   0.000000
    7       24.018032   0.000000
    8       26.646608   0.000000
    9       27.730802   0.000000
   10       29.414242   0.000000
   11       31.743789   0.000000
   12       35.405676   0.000000
   13       36.011200   0.000000
   14       37.692474   0.000000
   15       43.899664   0.000000
   16       58.443005   0.000000
 
  0.1333333E+00  0.1333333E+00  0.0000000E+00  0.1777778E-02
    1       -3.700196   1.000000
    2       17.448733   0.000000
    3       17.448830   0.000000
    4       19.222054   0.000000
    5       19.253516   0.000000
    6       23.607810   0.000000
    7       25.894923   0.000000
    8       25.894944   0.000000
    9       29.222638   0.000000
   10       30.917410   0.000000
   11       33.235111   0.000000
   12       35.889801   0.000000
   13       35.889851   0.000000
   14       38.228188   0.000000
   15       46.294736   0.000000
   16       57.688871   0.000000
 
  0.2000000E+00  0.1333333E+00  0.0000000E+00  0.7111111E-02
    1       -3.235391   1.000000
    2       15.311085   0.000000
    3       16.750196   0.000000
    4       18.498560   0.000000
    5       19.677021   0.000000
    6       22.253447   0.000000
    7       26.602449   0.000000
    8       26.848251   0.000000
    9       29.306704   0.000000
   10       32.649805   0.000000
   11       33.352637   0.000000
   12       37.209386   0.000000
   13       37.307584   0.000000
   14       39.635080   0.000000
   15       48.621641   0.000000
   16       54.225175   0.000000
 
  0.2666667E+00  0.1333333E+00  0.0000000E+00  0.7111111E-02
    1       -2.519338   1.000000
    2       12.633326   0.000000
    3       16.265363   0.000000
    4       17.760445   0.000000
    5       19.657502   0.000000
    6       22.527404   0.000000
    7       26.622469   0.000000
    8       26.753605   0.000000
    9       30.153431   0.000000
   10       31.889542   0.000000
   11       35.406940   0.000000
   12       39.578123   0.000000
   13       39.895035   0.000000
   14       42.028365   0.000000
   15       50.443867   0.000000
   16       51.338874   0.000000
 
  0.3333333E+00  0.1333333E+00  0.0000000E+00  0.7111111E-02
    1       -1.554618   1.000000
    2       10.054260   0.001769
    3       15.998168   0.000000
    4       16.950202   0.000000
    5       19.089892   0.000000
    6       23.958420   0.000000
    7       25.680783   0.000000
    8       26.948596   0.000000
    9       30.795416   0.000000
   10       31.752537   0.000000
   11       37.668865   0.000000
   12       42.309783   0.000000
   13       42.972860   0.000000
   14       44.932736   0.000000
   15       47.152387   0.000000
   16       49.786535   0.000000
 
  0.4000000E+00  0.1333333E+00  0.0000000E+00  0.7111111E-02
    1       -0.346021   1.000000
    2        7.650017   1.000000
    3       15.943572   0.000000
    4       16.077242   0.000000
    5       18.814979   0.000000
    6       24.693863   0.000000
    7       25.158746   0.000000
    8       27.693462   0.000000
    9       29.912613   0.000000
   10       33.436280   0.000000
   11       39.768859   0.000000
   12       43.014267   0.000000
   13       44.986753   0.000000
   14       46.789290   0.000000
   15       46.819740   0.000000
   16       49.992102   0.000000
 
  0.4666667E+00  0.1333333E+00  0.0000000E+00  0.7111111E-02
    1        1.095388   1.000000
    2        5.454716   1.000000
    3       15.269104   0.000000
    4       16.108032   0.000000
    5       18.900334   0.000000
    6       23.864542   0.000000
    7       25.547277   0.000000
    8       29.163955   0.000000
    9       29.600818   0.000000
   10       34.425741   0.000000
   11       41.319287   0.000000
   12       41.650841   0.000000
   13       43.213901   0.000000
   14       49.920177   0.000000
   15       49.974817   0.000000
   16       52.413464   0.000000
 
 -0.4666667E+00  0.1333333E+00  0.0000000E+00  0.7111111E-02
    1        2.648454   1.000000
    2        3.597973   1.000000
    3       14.613315   0.000000
    4       16.481625   0.000000
    5       19.278453   0.000000
    6       23.233355   0.000000
    7       25.468013   0.000000
    8       29.275007   0.000000
    9       31.313048   0.000000
   10       33.500588   0.000000
   11       40.255232   0.000000
   12       42.255141   0.000000
   13       43.297801   0.000000
   14       50.770243   0.000000
   15       52.455788   0.000000
   16       53.392760   0.000000
 
 -0.4000000E+00  0.1333333E+00  0.0000000E+00  0.7111111E-02
    1        1.620713   1.000000
    2        4.776895   1.000000
    3       14.151950   0.000000
    4       17.052221   0.000000
    5       19.909170   0.000000
    6       22.806006   0.000000
    7       25.245036   0.000000
    8       29.565779   0.000000
    9       31.458770   0.000000
   10       32.432361   0.000000
   11       39.376988   0.000000
   12       42.879619   0.000000
   13       44.407463   0.000000
   14       48.947282   0.000000
   15       51.583291   0.000000
   16       52.406030   0.000000
 
 -0.3333333E+00  0.1333333E+00  0.0000000E+00  0.7111111E-02
    1        0.109432   1.000000
    2        6.892101   1.000000
    3       13.904903   0.000000
    4       17.802519   0.000000
    5       20.770892   0.000000
    6       22.644945   0.000000
    7       25.020752   0.000000
    8       29.189444   0.000000
    9       29.942338   0.000000
   10       32.112704   0.000000
   11       39.893078   0.000000
   12       41.774703   0.000000
   13       45.990475   0.000000
   14       47.059730   0.000000
   15       48.641325   0.000000
   16       52.971001   0.000000
 
 -0.2666667E+00  0.1333333E+00  0.0000000E+00  0.7111111E-02
    1       -1.178775   1.000000
    2        9.227640   1.000000
    3       13.880438   0.000000
    4       18.693729   0.000000
    5       21.856560   0.000000
    6       22.765311   0.000000
    7       24.820651   0.000000
    8       27.009691   0.000000
    9       29.449049   0.000000
   10       31.978261   0.000000
   11       38.280759   0.000000
   12       42.111528   0.000000
   13       44.393710   0.000000
   14       44.961769   0.000000
   15       48.194462   0.000000
   16       51.794847   0.000000
 
 -0.2000000E+00  0.1333333E+00  0.0000000E+00  0.7111111E-02
    1       -2.225556   1.000000
    2       11.740812   0.000000
    3       14.092592   0.000000
    4       19.639891   0.000000
    5       23.092950   0.000000
    6       23.132955   0.000000
    7       24.600014   0.000000
    8       25.167268   0.000000
    9       28.130396   0.000000
   10       32.678335   0.000000
   11       35.833277   0.000000
   12       40.032450   0.000000
   13       40.948534   0.000000
   14       45.705201   0.000000
   15       47.522219   0.000000
   16       51.132464   0.000000
 
 -0.1333333E+00  0.1333333E+00  0.0000000E+00  0.3555556E-02
    1       -3.024757   1.000000
    2       14.189944   0.000000
    3       14.734676   0.000000
    4       20.424413   0.000000
    5       23.106498   0.000000
    6       24.158142   0.000000
    7       24.287965   0.000000
    8       24.468721   0.000000
    9       27.111211   0.000000
   10       32.982257   0.000000
   11       33.507667   0.000000
   12       37.581449   0.000000
   13       38.714982   0.000000
   14       42.836233   0.000000
   15       48.363535   0.000000
   16       51.006480   0.000000
 
  0.2000000E+00  0.2000000E+00  0.0000000E+00  0.1777778E-02
    1       -2.855678   1.000000
    2       15.981616   0.000000
    3       15.981706   0.000000
    4       17.504345   0.000000
    5       17.696379   0.000000
    6       20.577477   0.000000
    7       28.287583   0.000000
    8       28.287634   0.000000
    9       29.972797   0.000000
   10       34.183714   0.000000
   11       35.146865   0.000000
   12       37.228043   0.000000
   13       37.228096   0.000000
   14       39.666763   0.000000
   15       50.883837   0.000000
   16       54.178154   0.000000
 
  0.2666667E+00  0.2000000E+00  0.0000000E+00  0.7111111E-02
    1       -2.224644   1.000000
    2       13.936677   0.000000
    3       15.425940   0.000000
    4       16.444046   0.000000
    5       17.916035   0.000000
    6       20.089014   0.000000
    7       28.664301   0.000000
    8       29.011913   0.000000
    9       30.848877   0.000000
   10       34.738630   0.000000
   11       36.328295   0.000000
   12       38.749241   0.000000
   13       39.495113   0.000000
   14       40.958823   0.000000
   15       50.687738   0.000000
   16       52.085846   0.000000
 
  0.3333333E+00  0.2000000E+00  0.0000000E+00  0.7111111E-02
    1       -1.344471   1.000000
    2       11.384732   0.000000
    3       15.085206   0.000000
    4       15.268557   0.000000
    5       17.807518   0.000000
    6       21.306913   0.000000
    7       27.884777   0.000000
    8       29.179281   0.000000
    9       32.469178   0.000000
   10       33.738060   0.000000
   11       38.615359   0.000000
   12       41.185858   0.000000
   13       42.348429   0.000000
   14       43.564620   0.000000
   15       47.189636   0.000000
   16       49.638578   0.000000
 
  0.4000000E+00  0.2000000E+00  0.0000000E+00  0.7111111E-02
    1       -0.218991   1.000000
    2        8.944110   1.000000
    3       14.140017   0.000000
    4       14.968724   0.000000
    5       17.679127   0.000000
    6       23.186915   0.000000
    7       26.928092   0.000000
    8       29.147125   0.000000
    9       32.928198   0.000000
   10       34.095678   0.000000
   11       40.772907   0.000000
   12       43.223749   0.000000
   13       44.493283   0.000000
   14       45.252273   0.000000
   15       46.225964   0.000000
   16       48.834301   0.000000
 
  0.4666667E+00  0.2000000E+00  0.0000000E+00  0.7111111E-02
    1        1.142994   1.000000
    2        6.688543   1.000000
    3       13.159972   0.000000
    4       15.070561   0.000000
    5       17.768529   0.000000
    6       25.158677   0.000000
    7       26.037400   0.000000
    8       29.017855   0.000000
    9       32.455217   0.000000
   10       34.782309   0.000000
   11       41.960789   0.000000
   12       42.270355   0.000000
   13       43.948885   0.000000
   14       47.982732   0.000000
   15       48.515621   0.000000
   16       52.082767   0.000000
 
 -0.4666667E+00  0.2000000E+00  0.0000000E+00  0.7111111E-02
    1        2.708216   1.000000
    2        4.672788   1.000000
    3       12.377861   0.000000
    4       15.390117   0.000000
    5       18.114888   0.000000
    6       25.337123   0.000000
    7       26.669912   0.000000
    8       29.347365   0.000000
    9       32.356058   0.000000
   10       33.565781   0.000000
   11       40.349447   0.000000
   12       43.027493   0.000000
   13       44.899888   0.000000
   14       50.785402   0.000000
   15       51.414271   0.000000
   16       51.910846   0.000000
 
 -0.4000000E+00  0.2000000E+00  0.0000000E+00  0.7111111E-02
    1        2.707581   1.000000
    2        4.671766   1.000000
    3       11.812605   0.000000
    4       15.922361   0.000000
    5       18.702419   0.000000
    6       24.836903   0.000000
    7       26.976743   0.000000
    8       30.536863   0.000000
    9       31.381386   0.000000
   10       32.515785   0.000000
   11       38.825801   0.000000
   12       44.911485   0.000000
   13       45.186940   0.000000
   14       48.392060   0.000000
   15       52.672369   0.000000
   16       53.846441   0.000000
 
 -0.3333333E+00  0.2000000E+00  0.0000000E+00  0.7111111E-02
    1        1.141973   1.000000
    2        6.682583   1.000000
    3       11.478098   0.000000
    4       16.658336   0.000000
    5       19.519931   0.000000
    6       24.557439   0.000000
    7       26.741153   0.000000
    8       29.011394   0.000000
    9       30.874712   0.000000
   10       33.195839   0.000000
   11       38.611578   0.000000
   12       42.825658   0.000000
   13       46.408878   0.000000
   14       47.867688   0.000000
   15       50.360647   0.000000
   16       54.166183   0.000000
 
 -0.2666667E+00  0.2000000E+00  0.0000000E+00  0.7111111E-02
    1       -0.220307   1.000000
    2        8.917214   1.000000
    3       11.392272   0.000000
    4       17.576914   0.000000
    5       20.557482   0.000000
    6       24.490405   0.000000
    7       26.317384   0.000000
    8       26.753573   0.000000
    9       29.948534   0.000000
   10       34.233682   0.000000
   11       38.321154   0.000000
   12       41.901461   0.000000
   13       44.542492   0.000000
   14       46.423180   0.000000
   15       50.210036   0.000000
   16       52.382309   0.000000
 
 -0.2000000E+00  0.2000000E+00  0.0000000E+00  0.3555556E-02
    1       -1.345549   1.000000
    2       11.067046   0.000000
    3       11.815079   0.000000
    4       18.630268   0.000000
    5       21.772603   0.000000
    6       24.658115   0.000000
    7       24.770243   0.000000
    8       25.639657   0.000000
    9       28.859430   0.000000
   10       34.665884   0.000000
   11       36.324037   0.000000
   12       42.591797   0.000000
   13       42.661335   0.000000
   14       44.319468   0.000000
   15       48.516100   0.000000
   16       53.622225   0.000000
 
  0.2666667E+00  0.2666667E+00  0.0000000E+00  0.1777778E-02
    1       -1.678281   1.000000
    2       14.794850   0.000000
    3       14.794956   0.000000
    4       14.893131   0.000000
    5       16.377039   0.000000
    6       18.686215   0.000000
    7       30.595990   0.000000
    8       30.595999   0.000000
    9       30.989475   0.000000
   10       37.407802   0.000000
   11       37.868117   0.000000
   12       39.219369   0.000000
   13       39.219422   0.000000
   14       41.123851   0.000000
   15       50.948363   0.000000
   16       50.948448   0.000000
 
  0.3333333E+00  0.2666667E+00  0.0000000E+00  0.7111111E-02
    1       -0.883856   1.000000
    2       12.792454   0.000000
    3       13.607870   0.000000
    4       14.385352   0.000000
    5       16.655378   0.000000
    6       18.838733   0.000000
    7       30.180829   0.000000
    8       31.281379   0.000000
    9       32.766361   0.000000
   10       37.089231   0.000000
   11       39.838041   0.000000
   12       40.926960   0.000000
   13       42.205618   0.000000
   14       42.301086   0.000000
   15       47.561409   0.000000
   16       49.184229   0.000000
 
  0.4000000E+00  0.2666667E+00  0.0000000E+00  0.7111111E-02
    1        0.156140   1.000000
    2       10.417689   0.000000
    3       12.286320   0.000000
    4       14.196878   0.000000
    5       16.728624   0.000000
    6       20.427118   0.000000
    7       29.301122   0.000000
    8       31.316776   0.000000
    9       34.471238   0.000000
   10       36.344282   0.000000
   11       42.038045   0.000000
   12       43.378168   0.000000
   13       43.701916   0.000000
   14       44.659769   0.000000
   15       45.641346   0.000000
   16       48.025349   0.000000
 
  0.4666667E+00  0.2666667E+00  0.0000000E+00  0.7111111E-02
    1        1.435525   1.000000
    2        8.135372   1.000000
    3       11.170924   0.000000
    4       14.229462   0.000000
    5       16.820592   0.000000
    6       22.529147   0.000000
    7       28.413874   0.000000
    8       30.963194   0.000000
    9       35.134765   0.000000
   10       35.878105   0.000000
   11       42.622764   0.000000
   12       43.055712   0.000000
   13       44.750209   0.000000
   14       46.460731   0.000000
   15       47.188337   0.000000
   16       51.062748   0.000000
 
 -0.4666667E+00  0.2666667E+00  0.0000000E+00  0.7111111E-02
    1        2.937182   1.000000
    2        6.046738   1.000000
    3       10.278968   0.000000
    4       14.482689   0.000000
    5       17.115998   0.000000
    6       24.835998   0.000000
    7       27.660012   0.000000
    8       30.412352   0.000000
    9       33.773315   0.000000
   10       35.611894   0.000000
   11       40.864548   0.000000
   12       43.831513   0.000000
   13       46.203901   0.000000
   14       49.541336   0.000000
   15       49.606289   0.000000
   16       50.949356   0.000000
 
 -0.4000000E+00  0.2666667E+00  0.0000000E+00  0.7111111E-02
    1        3.970245   1.000000
    2        4.861378   1.000000
    3        9.622035   0.999303
    4       14.953989   0.000000
    5       17.645739   0.000000
    6       27.081111   0.000000
    7       27.091744   0.000000
    8       29.826803   0.000000
    9       31.517345   0.000000
   10       35.303209   0.000000
   11       39.484093   0.000000
   12       45.560639   0.000000
   13       45.953357   0.000000
   14       48.947511   0.000000
   15       51.975643   0.000000
   16       52.023143   0.000000
 
 -0.3333333E+00  0.2666667E+00  0.0000000E+00  0.7111111E-02
    1        2.411798   1.000000
    2        6.691519   1.000000
    3        9.221012   1.000000
    4       15.637443   0.000000
    5       18.405381   0.000000