 running on   16 total cores
 distrk:  each k-point on   16 cores,    1 groups
 distr:  one band on    1 cores,   16 groups
 using from now: INCAR     
 vasp.5.4.1 24Jun15 (build May 02 2016 14:41:14) complex                        
  
 POSCAR found :  1 types and       1 ions
 scaLAPACK will be used

 ----------------------------------------------------------------------------- 
|                                                                             |
|           W    W    AA    RRRRR   N    N  II  N    N   GGGG   !!!           |
|           W    W   A  A   R    R  NN   N  II  NN   N  G    G  !!!           |
|           W    W  A    A  R    R  N N  N  II  N N  N  G       !!!           |
|           W WW W  AAAAAA  RRRRR   N  N N  II  N  N N  G  GGG   !            |
|           WW  WW  A    A  R   R   N   NN  II  N   NN  G    G                |
|           W    W  A    A  R    R  N    N  II  N    N   GGGG   !!!           |
|                                                                             |
|      For optimal performance we recommend to set                            |
|        NCORE= 4 - approx SQRT( number of cores)                             |
|      NCORE specifies how many cores store one orbital (NPAR=cpu/NCORE).     |
|      This setting can  greatly improve the performance of VASP for DFT.     |
|      The default, NPAR=number of cores might be grossly inefficient         |
|      on modern multi-core architectures or massively parallel machines.     |
|      Do your own testing !!!!                                               |
|      Unfortunately you need to use the default for GW and RPA calculations. |
|      (for HF NCORE is supported but not extensively tested yet)             |
|                                                                             |
 ----------------------------------------------------------------------------- 

 LDA part: xc-table for Pade appr. of Perdew
 POSCAR, INCAR and KPOINTS ok, starting setup
 WARNING: small aliasing (wrap around) errors must be expected
 FFT: planning ...
 WAVECAR not read
 entering main loop
       N       E                     dE             d eps       ncg     rms          rms(c)
DAV:   1    -0.466232341208E+01   -0.46623E+01   -0.11765E+03  5264   0.106E+02
DAV:   2    -0.488367103404E+01   -0.22135E+00   -0.21938E+00  4992   0.555E+00
DAV:   3    -0.488372908608E+01   -0.58052E-04   -0.58052E-04  5200   0.834E-02
DAV:   4    -0.488372909168E+01   -0.56008E-08   -0.42670E-08  5408   0.536E-04
DAV:   5    -0.488372909077E+01    0.90785E-09   -0.21966E-13  5200   0.607E-07    0.771E-01
DAV:   6    -0.487089703955E+01    0.12832E-01   -0.40766E-03  4272   0.138E-01    0.461E-01
DAV:   7    -0.486359109473E+01    0.73059E-02   -0.89773E-03  4304   0.204E-01    0.256E-02
DAV:   8    -0.486357305697E+01    0.18038E-04   -0.20100E-05  4400   0.135E-02    0.444E-03
DAV:   9    -0.486357383154E+01   -0.77456E-06   -0.22469E-07  5600   0.166E-03
   1 F= -.48635738E+01 E0= -.48619464E+01  d E =-.325478E-02
 writing wavefunctions
