Diamond                                 
   3.56700000000000     
     0.524457    0.524457    0.000000
     0.000000    0.524457    0.524457
     0.524457   -0.000000    0.524457
   C 
     2
Direct
  0.000000  0.000000  0.000000
  0.250000  0.250000  0.250000
 
   28   28   28
  15.531      16.334      18.150      19.675      19.873      18.586      16.370      13.925      11.676      9.7942    
  8.3546      7.3182      6.6162      6.2035      6.0663      6.2035      6.6162      7.3183      8.3547      9.7942    
  11.676      13.925      16.370      18.586      19.873      19.674      18.150      16.334      16.334      17.810    
  19.707      20.743      20.277      18.544      16.223      13.901      11.853      10.214      8.9960      8.1338    
  7.5718      7.2900      7.2900      7.5717      8.1338      8.9961      10.214      11.853      13.901      16.223    
  18.543      20.277      20.743      19.707      17.810      16.335      18.150      19.707      21.009      21.158    
  20.011      18.037      15.840      13.792      12.075      10.754      9.7842      9.1049      8.6910      8.5501    
  8.6909      9.1049      9.7842      10.754      12.075      13.792      15.840      18.037      20.011      21.158    
  21.009      19.708      18.150      17.461      19.675      20.743      21.158      20.528      19.043      17.177    
  15.324      13.695      12.400      11.418      10.688      10.181      9.9131      9.9131      10.181      10.688    
  11.418      12.400      13.695      15.324      17.177      19.043      20.528      21.158      20.743      19.675    
  18.792      18.792      19.873      20.277      20.011      19.043      17.655      16.174      14.810      13.695    
  12.829      12.148      11.616      11.259      11.131      11.259      11.616      12.148      12.829      13.695    
  14.810      16.174      17.655      19.043      20.011      20.277      19.873      19.234      18.933      19.234    
  18.586      18.544      18.037      17.177      16.174      15.209      14.413      13.792      13.280      12.825    
  12.452      12.234      12.234      12.452      12.825      13.280      13.792      14.413      15.209      16.174    
  17.177      18.037      18.544      18.586      18.299      18.013      18.013      18.299      16.370      16.223    
  15.840      15.324      14.810      14.413      14.136      13.901      13.638      13.351      13.113      13.019    
  13.113      13.351      13.638      13.901      14.136      14.413      14.810      15.324      15.840      16.223    
  16.370      16.281      16.093      16.000      16.093      16.280      13.925      13.901      13.792      13.695    
  13.695      13.792      13.901      13.925      13.835      13.676      13.552      13.552      13.676      13.835    
  13.925      13.901      13.792      13.695      13.695      13.792      13.901      13.925      13.835      13.676    
  13.552      13.552      13.676      13.835      11.676      11.853      12.075      12.400      12.829      13.280    
  13.638      13.835      13.869      13.815      13.781      13.816      13.869      13.835      13.638      13.280    
  12.829      12.400      12.075      11.853      11.676      11.486      11.280      11.112      11.046      11.112    
  11.281      11.487      9.7942      10.214      10.754      11.418      12.148      12.825      13.351      13.676    
  13.815      13.849      13.849      13.816      13.676      13.351      12.825      12.148      11.418      10.754    
  10.214      9.7943      9.4558      9.1710      8.9470      8.8191      8.8191      8.9471      9.1710      9.4557    
  8.3546      8.9960      9.7842      10.688      11.616      12.452      13.113      13.552      13.781      13.849    
  13.781      13.552      13.113      12.452      11.616      10.688      9.7842      8.9960      8.3546      7.8474    
  7.4495      7.1494      6.9564      6.8890      6.9563      7.1493      7.4494      7.8474      7.3182      8.1338    
  9.1049      10.181      11.259      12.234      13.019      13.552      13.816      13.816      13.552      13.019    
  12.234      11.259      10.181      9.1050      8.1338      7.3182      6.6630      6.1508      5.7652      5.5016    
  5.3662      5.3661      5.5015      5.7652      6.1509      6.6631      6.6162      7.5718      8.6910      9.9131    
  11.131      12.234      13.113      13.676      13.869      13.676      13.113      12.234      11.131      9.9130    
  8.6909      7.5719      6.6163      5.8382      5.2250      4.7582      4.4260      4.2253      4.1580      4.2253    
  4.4261      4.7583      5.2250      5.8381      6.2035      7.2900      8.5501      9.9131      11.259      12.452    
  13.351      13.835      13.835      13.351      12.452      11.259      9.9130      8.5500      7.2899      6.2035    
  5.3120      4.6053      4.0623      3.6654      3.4041      3.2741      3.2741      3.4041      3.6654      4.0623    
  4.6052      5.3119      6.0663      7.2900      8.6909      10.181      11.616      12.825      13.638      13.925    
  13.638      12.825      11.616      10.181      8.6909      7.2899      6.0661      5.0530      4.2457      3.6223    
  3.1594      2.8393      2.6512      2.5892      2.6513      2.8393      3.1593      3.6222      4.2457      5.0531    
  6.2035      7.5717      9.1049      10.688      12.148      13.280      13.901      13.901      13.280      12.148    
  10.688      9.1050      7.5719      6.2035      5.0530      4.1272      3.4076      2.8681      2.4845      2.2388    
  2.1189      2.1189      2.2387      2.4844      2.8681      3.4077      4.1273      5.0531      6.6162      8.1338    
  9.7842      11.418      12.829      13.792      14.136      13.792      12.829      11.418      9.7842      8.1338    
  6.6163      5.3120      4.2457      3.4076      2.7726      2.3127      2.0031      1.8253      1.7673      1.8252    
  2.0031      2.3127      2.7727      3.4077      4.2457      5.3120      7.3183      8.9961      10.754      12.400    
  13.695      14.413      14.413      13.695      12.400      10.754      8.9960      7.3182      5.8382      4.6053    
  3.6223      2.8681      2.3127      1.9264      1.6841      1.5677      1.5677      1.6841      1.9264      2.3127    
  2.8681      3.6222      4.6052      5.8382      8.3547      10.214      12.075      13.695      14.810      15.209    
  14.810      13.695      12.075      10.214      8.3546      6.6630      5.2250      4.0623      3.1594      2.4845    
  2.0031      1.6841      1.5031      1.4445      1.5031      1.6841      2.0031      2.4844      3.1593      4.0623    
  5.2250      6.6631      9.7942      11.853      13.792      15.324      16.174      16.174      15.324      13.792    
  11.853      9.7943      7.8474      6.1508      4.7582      3.6654      2.8393      2.2388      1.8253      1.5677    
  1.4445      1.4445      1.5677      1.8252      2.2387      2.8393      3.6654      4.7583      6.1509      7.8474    
  11.676      13.901      15.840      17.177      17.655      17.177      15.840      13.901      11.676      9.4558    
  7.4495      5.7652      4.4260      3.4041      2.6512      2.1189      1.7673      1.5677      1.5031      1.5677    
  1.7673      2.1189      2.6513      3.4041      4.4261      5.7652      7.4494      9.4557      13.925      16.223    
  18.037      19.043      19.043      18.037      16.223      13.925      11.486      9.1710      7.1494      5.5016    
  4.2253      3.2741      2.5892      2.1189      1.8252      1.6841      1.6841      1.8252      2.1189      2.5892    
  3.2741      4.2253      5.5015      7.1493      9.1710      11.487      16.370      18.543      20.011      20.528    
  20.011      18.544      16.370      13.835      11.280      8.9470      6.9564      5.3662      4.1580      3.2741    
  2.6513      2.2387      2.0031      1.9264      2.0031      2.2387      2.6513      3.2741      4.1580      5.3661    
  6.9563      8.9471      11.281      13.835      18.586      20.277      21.158      21.158      20.277      18.586    
  16.281      13.676      11.112      8.8191      6.8890      5.3661      4.2253      3.4041      2.8393      2.4844    
  2.3127      2.3127      2.4844      2.8393      3.4041      4.2253      5.3661      6.8890      8.8192      11.112    
  13.676      16.280      19.873      20.743      21.009      20.743      19.873      18.299      16.093      13.552    
  11.046      8.8191      6.9563      5.5015      4.4261      3.6654      3.1593      2.8681      2.7727      2.8681    
  3.1593      3.6654      4.4261      5.5015      6.9563      8.8192      11.046      13.552      16.093      18.299    
  19.674      19.707      19.708      19.675      19.234      18.013      16.000      13.552      11.112      8.9471    
  7.1493      5.7652      4.7583      4.0623      3.6222      3.4077      3.4077      3.6222      4.0623      4.7583    
  5.7652      7.1493      8.9471      11.112      13.552      16.000      18.013      19.234      18.150      17.810    
  18.150      18.792      18.933      18.013      16.093      13.676      11.281      9.1710      7.4494      6.1509    
  5.2250      4.6052      4.2457      4.1273      4.2457      4.6052      5.2250      6.1509      7.4494      9.1710    
  11.281      13.676      16.093      18.013      18.933      18.792      16.334      16.335      17.461      18.792    
  19.234      18.299      16.280      13.835      11.487      9.4557      7.8474      6.6631      5.8381      5.3119    
  5.0531      5.0531      5.3120      5.8382      6.6631      7.8474      9.4557      11.487      13.835      16.280    
  18.299      19.234      18.792      17.461      16.334      17.810      19.707      20.743      20.277      18.544    
  16.223      13.901      11.853      10.214      8.9960      8.1338      7.5718      7.2900      7.2900      7.5717    
  8.1338      8.9961      10.214      11.853      13.901      16.223      18.543      20.277      20.743      19.707    
  17.810      16.335      17.810      19.607      21.177      21.522      20.457      18.478      16.234      14.136    
  12.371      11.014      10.018      9.3213      8.8965      8.7519      8.8964      9.3212      10.018      11.014    
  12.371      14.136      16.234      18.477      20.457      21.522      21.178      19.607      17.810      17.023    
  19.707      21.177      21.941      21.493      20.026      18.084      16.135      14.413      13.040      12.001    
  11.228      10.691      10.406      10.406      10.690      11.228      12.001      13.040      14.413      16.135    
  18.084      20.026      21.493      21.941      21.178      19.707      18.553      18.553      20.743      21.522    
  21.493      20.578      19.115      17.514      16.031      14.810      13.860      13.112      12.526      12.131    
  11.990      12.131      12.526      13.112      13.860      14.810      16.031      17.514      19.115      20.578    
  21.493      21.522      20.742      19.749      19.302      19.749      20.277      20.457      20.026      19.115    
  18.008      16.931      16.031      15.324      14.733      14.208      13.774      13.519      13.519      13.774    
  14.208      14.733      15.324      16.031      16.931      18.008      19.115      20.026      20.457      20.277    
  19.699      19.206      19.206      19.699      18.544      18.478      18.084      17.514      16.931      16.467    
  16.135      15.840      15.510      15.144      14.834      14.711      14.834      15.144      15.510      15.840    
  16.134      16.467      16.931      17.514      18.084      18.478      18.544      18.289      17.931      17.766    
  17.931      18.289      16.223      16.234      16.135      16.031      16.031      16.135      16.234      16.223    
  16.052      15.786      15.584      15.584      15.786      16.052      16.223      16.234      16.134      16.031    
  16.031      16.134      16.234      16.223      16.052      15.786      15.584      15.584      15.786      16.052    
  13.901      14.136      14.413      14.810      15.324      15.840      16.223      16.370      16.280      16.093    
  16.000      16.093      16.281      16.370      16.223      15.840      15.324      14.810      14.413      14.136    
  13.901      13.638      13.351      13.113      13.019      13.113      13.351      13.638      11.853      12.371    
  13.040      13.860      14.733      15.510      16.052      16.280      16.256      16.163      16.163      16.256    
  16.281      16.052      15.510      14.733      13.860      13.040      12.371      11.853      11.430      11.063    
  10.764      10.591      10.591      10.764      11.063      11.430      10.214      11.014      12.001      13.112    
  14.208      15.144      15.786      16.093      16.163      16.159      16.163      16.093      15.786      15.144    
  14.208      13.112      12.001      11.014      10.214      9.5893      9.0998      8.7256      8.4804      8.3937    
  8.4804      8.7256      9.0997      9.5892      8.9960      10.018      11.228      12.526      13.774      14.834    
  15.584      16.000      16.163      16.163      16.000      15.584      14.834      13.774      12.526      11.228    
  10.018      8.9959      8.1824      7.5542      7.0829      6.7588      6.5907      6.5907      6.7587      7.0828    
  7.5541      8.1824      8.1338      9.3213      10.691      12.131      13.519      14.711      15.584      16.093    
  16.256      16.093      15.584      14.711      13.519      12.131      10.691      9.3213      8.1338      7.1690    
  6.4167      5.8492      5.4460      5.2013      5.1188      5.2013      5.4460      5.8493      6.4168      7.1691    
  7.5718      8.8965      10.406      11.990      13.519      14.834      15.786      16.281      16.281      15.786    
  14.834      13.519      11.990      10.406      8.8965      7.5719      6.4820      5.6235      4.9693      4.4929    
  4.1787      4.0217      4.0217      4.1788      4.4930      4.9693      5.6234      6.4819      7.2900      8.7519    
  10.406      12.131      13.774      15.144      16.052      16.370      16.052      15.144      13.774      12.131    
  10.406      8.7518      7.2899      6.0779      5.1169      4.3794      3.8335      3.4556      3.2326      3.1588    
  3.2327      3.4557      3.8335      4.3793      5.1168      6.0779      7.2900      8.8964      10.690      12.526    
  14.208      15.510      16.223      16.223      15.510      14.208      12.526      10.691      8.8965      7.2899    
  5.9434      4.8674      4.0369      3.4163      2.9744      2.6901      2.5507      2.5507      2.6900      2.9744    
  3.4162      4.0369      4.8675      5.9435      7.5717      9.3212      11.228      13.112      14.733      15.840    
  16.234      15.840      14.733      13.112      11.228      9.3213      7.5719      6.0779      4.8674      3.9240    
  3.2128      2.6976      2.3495      2.1484      2.0827      2.1484      2.3495      2.6976      3.2128      3.9241    
  4.8675      6.0779      8.1338      10.018      12.001      13.860      15.324      16.134      16.134      15.324    
  13.860      12.001      10.018      8.1338      6.4820      5.1169      4.0369      3.2128      2.6070      2.1849    
  1.9192      1.7910      1.7910      1.9192      2.1849      2.6071      3.2128      4.0369      5.1168      6.4820    
  8.9961      11.014      13.040      14.810      16.031      16.467      16.031      14.810      13.040      11.014    
  8.9959      7.1690      5.6235      4.3794      3.4163      2.6976      2.1849      1.8447      1.6512      1.5886    
  1.6512      1.8447      2.1849      2.6976      3.4162      4.3792      5.6234      7.1691      10.214      12.371    
  14.413      16.031      16.931      16.931      16.031      14.413      12.371      10.214      8.1824      6.4167    
  4.9693      3.8335      2.9744      2.3495      1.9192      1.6512      1.5231      1.5231      1.6512      1.9192    
  2.3495      2.9744      3.8335      4.9693      6.4167      8.1824      11.853      14.136      16.135      17.514    
  18.008      17.514      16.134      14.136      11.853      9.5893      7.5542      5.8492      4.4929      3.4556    
  2.6901      2.1484      1.7910      1.5886      1.5231      1.5886      1.7910      2.1484      2.6901      3.4557    
  4.4930      5.8493      7.5541      9.5892      13.901      16.234      18.084      19.115      19.115      18.084    
  16.234      13.901      11.430      9.0998      7.0829      5.4460      4.1787      3.2326      2.5507      2.0827    
  1.7910      1.6512      1.6512      1.7910      2.0827      2.5507      3.2327      4.1788      5.4460      7.0828    
  9.0997      11.430      16.223      18.477      20.026      20.578      20.026      18.478      16.223      13.638    
  11.063      8.7256      6.7588      5.2013      4.0217      3.1588      2.5507      2.1484      1.9192      1.8447    
  1.9192      2.1484      2.5507      3.1588      4.0217      5.2013      6.7588      8.7257      11.063      13.638    
  18.543      20.457      21.493      21.493      20.457      18.544      16.052      13.351      10.764      8.4804    
  6.5907      5.1188      4.0217      3.2327      2.6900      2.3495      2.1849      2.1849      2.3495      2.6901    
  3.2327      4.0217      5.1187      6.5907      8.4805      10.764      13.351      16.052      20.277      21.522    
  21.941      21.522      20.277      18.289      15.786      13.113      10.591      8.3937      6.5907      5.2013    
  4.1788      3.4557      2.9744      2.6976      2.6071      2.6976      2.9744      3.4557      4.1788      5.2013    
  6.5907      8.3938      10.591      13.113      15.786      18.289      20.743      21.178      21.178      20.742    
  19.699      17.931      15.584      13.019      10.591      8.4804      6.7587      5.4460      4.4930      3.8335    
  3.4162      3.2128      3.2128      3.4162      3.8335      4.4930      5.4460      6.7588      8.4805      10.591    
  13.019      15.584      17.931      19.699      19.707      19.607      19.707      19.749      19.206      17.766    
  15.584      13.113      10.764      8.7256      7.0828      5.8493      4.9693      4.3793      4.0369      3.9241    
  4.0369      4.3792      4.9693      5.8493      7.0828      8.7257      10.764      13.113      15.584      17.766    
  19.206      19.749      17.810      17.810      18.553      19.302      19.206      17.931      15.786      13.351    
  11.063      9.0997      7.5541      6.4168      5.6234      5.1168      4.8675      4.8675      5.1168      5.6234    
  6.4167      7.5541      9.0997      11.063      13.351      15.786      17.931      19.206      19.302      18.553    
  16.335      17.023      18.553      19.749      19.699      18.289      16.052      13.638      11.430      9.5892    
  8.1824      7.1691      6.4819      6.0779      5.9435      6.0779      6.4820      7.1691      8.1824      9.5892    
  11.430      13.638      16.052      18.289      19.699      19.749      18.553      17.023      18.150      19.707    
  21.009      21.158      20.011      18.037      15.840      13.792      12.075      10.754      9.7842      9.1049    
  8.6910      8.5501      8.6909      9.1049      9.7842      10.754      12.075      13.792      15.840      18.037    
  20.011      21.158      21.009      19.708      18.150      17.461      19.707      21.177      21.941      21.493    
  20.026      18.084      16.134      14.413      13.040      12.001      11.228      10.691      10.406      10.406    
  10.690      11.228      12.001      13.040      14.413      16.135      18.084      20.026      21.493      21.941    
  21.178      19.707      18.553      18.553      21.009      21.941      22.011      21.124      19.637      17.993    
  16.467      15.209      14.229      13.456      12.850      12.442      12.295      12.442      12.850      13.456    
  14.229      15.209      16.467      17.993      19.637      21.124      22.012      21.941      21.008      19.873    
  19.368      19.873      21.158      21.493      21.124      20.193      19.028      17.890      16.931      16.174    
  15.539      14.973      14.504      14.227      14.227      14.504      14.973      15.538      16.174      16.931    
  17.890      19.028      20.193      21.124      21.493      21.158      20.385      19.755      19.755      20.385    
  20.011      20.026      19.637      19.028      18.400      17.890      17.514      17.177      16.797      16.369    
  16.003      15.856      16.003      16.369      16.797      17.177      17.514      17.890      18.400      19.028    
  19.637      20.026      20.011      19.607      19.100      18.873      19.101      19.607      18.037      18.084    
  17.993      17.890      17.890      17.993      18.084      18.037      17.783      17.407      17.126      17.126    
  17.407      17.783      18.037      18.084      17.993      17.890      17.890      17.993      18.084      18.037    
  17.783      17.407      17.126      17.126      17.407      17.783      15.840      16.134      16.467      16.931    
  17.514      18.084      18.478      18.544      18.289      17.931      17.766      17.931      18.289      18.544    
  18.478      18.084      17.514      16.931      16.467      16.134      15.840      15.510      15.144      14.834    
  14.711      14.834      15.144      15.510      13.792      14.413      15.209      16.174      17.177      18.037    
  18.544      18.586      18.299      18.013      18.013      18.299      18.586      18.544      18.037      17.177    
  16.174      15.209      14.413      13.792      13.280      12.825      12.452      12.234      12.234      12.452    
  12.825      13.280      12.075      13.040      14.229      15.539      16.797      17.783      18.289      18.299    
  18.063      17.929      18.063      18.299      18.289      17.783      16.797      15.538      14.229      13.040    
  12.075      11.324      10.736      10.281      9.9777      9.8694      9.9778      10.281      10.736      11.324    
  10.754      12.001      13.456      14.973      16.369      17.407      17.931      18.013      17.929      17.929    
  18.013      17.931      17.407      16.369      14.973      13.456      12.001      10.754      9.7658      9.0103    
  8.4460      8.0561      7.8524      7.8524      8.0561      8.4459      9.0102      9.7658      9.7842      11.228    
  12.850      14.504      16.003      17.126      17.766      18.013      18.063      18.013      17.766      17.126    
  16.003      14.504      12.850      11.228      9.7842      8.6063      7.6955      7.0155      6.5343      6.2415    
  6.1424      6.2415      6.5342      7.0155      7.6956      8.6064      9.1049      10.691      12.442      14.227    
  15.856      17.126      17.931      18.299      18.299      17.931      17.126      15.856      14.227      12.442    
  10.691      9.1050      7.7841      6.7465      5.9632      5.3970      5.0241      4.8373      4.8373      5.0241    
  5.3970      5.9633      6.7465      7.7840      8.6910      10.406      12.295      14.227      16.003      17.407    
  18.289      18.586      18.289      17.407      16.003      14.227      12.295      10.406      8.6910      7.2474    
  6.1013      5.2271      4.5845      4.1409      3.8787      3.7917      3.8787      4.1409      4.5845      5.2271    
  6.1012      7.2473      8.5501      10.406      12.442      14.504      16.369      17.783      18.544      18.544    
  17.783      16.369      14.504      12.442      10.406      8.5500      6.9782      5.7213      4.7559      4.0384    
  3.5287      3.2001      3.0387      3.0387      3.2002      3.5287      4.0383      4.7558      5.7213      6.9782    
  8.6909      10.690      12.850      14.973      16.797      18.037      18.478      18.037      16.797      14.973    
  12.850      10.691      8.6910      6.9782      5.5949      4.5238      3.7211      3.1410      2.7483      2.5205    
  2.4459      2.5205      2.7482      3.1409      3.7210      4.5239      5.5950      6.9782      9.1049      11.228    
  13.456      15.538      17.177      18.084      18.084      17.177      15.538      13.456      11.228      9.1050    
  7.2474      5.7213      4.5238      3.6165      2.9520      2.4886      2.1958      2.0541      2.0541      2.1957    
  2.4886      2.9520      3.6166      4.5239      5.7213      7.2473      9.7842      12.001      14.229      16.174    
  17.514      17.993      17.514      16.174      14.229      12.001      9.7842      7.7841      6.1013      4.7559    
  3.7211      2.9520      2.4037      2.0392      1.8313      1.7638      1.8313      2.0392      2.4038      2.9520    
  3.7210      4.7558      6.1013      7.7841      10.754      13.040      15.209      16.931      17.890      17.890    
  16.931      15.209      13.040      10.754      8.6063      6.7465      5.2271      4.0384      3.1410      2.4886    
  2.0392      1.7591      1.6250      1.6250      1.7591      2.0392      2.4886      3.1409      4.0382      5.2271    
  6.7465      8.6064      12.075      14.413      16.467      17.890      18.400      17.890      16.467      14.413    
  12.075      9.7658      7.6955      5.9632      4.5845      3.5287      2.7483      2.1958      1.8313      1.6250    
  1.5583      1.6250      1.8313      2.1958      2.7482      3.5287      4.5845      5.9632      7.6956      9.7658    
  13.792      16.135      17.993      19.028      19.028      17.993      16.134      13.792      11.324      9.0103    
  7.0155      5.3970      4.1409      3.2001      2.5205      2.0541      1.7638      1.6250      1.6250      1.7638    
  2.0540      2.5205      3.2002      4.1410      5.3970      7.0155      9.0102      11.324      15.840      18.084    
  19.637      20.193      19.637      18.084      15.840      13.280      10.736      8.4460      6.5343      5.0241    
  3.8787      3.0387      2.4459      2.0541      1.8313      1.7591      1.8313      2.0540      2.4459      3.0387    
  3.8787      5.0241      6.5343      8.4459      10.736      13.280      18.037      20.026      21.124      21.124    
  20.026      18.037      15.510      12.825      10.281      8.0561      6.2415      4.8373      3.7917      3.0387    
  2.5205      2.1957      2.0392      2.0392      2.1958      2.5205      3.0387      3.7916      4.8372      6.2415    
  8.0561      10.281      12.825      15.510      20.011      21.493      22.012      21.493      20.011      17.783    
  15.144      12.452      9.9777      7.8524      6.1424      4.8373      3.8787      3.2002      2.7482      2.4886    
  2.4038      2.4886      2.7482      3.2002      3.8787      4.8372      6.1424      7.8524      9.9778      12.452    
  15.144      17.783      21.158      21.941      21.941      21.158      19.607      17.407      14.834      12.234    
  9.8694      7.8524      6.2415      5.0241      4.1409      3.5287      3.1409      2.9520      2.9520      3.1409    
  3.5287      4.1410      5.0241      6.2415      7.8524      9.8694      12.234      14.834      17.407      19.607    
  21.009      21.178      21.008      20.385      19.100      17.126      14.711      12.234      9.9778      8.0561    
  6.5342      5.3970      4.5845      4.0383      3.7210      3.6166      3.7210      4.0382      4.5845      5.3970    
  6.5343      8.0561      9.9778      12.234      14.711      17.126      19.101      20.385      19.708      19.707    
  19.873      19.755      18.873      17.126      14.834      12.452      10.281      8.4459      7.0155      5.9633    
  5.2271      4.7558      4.5239      4.5239      4.7558      5.2271      5.9632      7.0155      8.4459      10.281    
  12.452      14.834      17.126      18.873      19.755      19.873      18.150      18.553      19.368      19.755    
  19.101      17.407      15.144      12.825      10.736      9.0102      7.6956      6.7465      6.1012      5.7213    
  5.5950      5.7213      6.1013      6.7465      7.6956      9.0102      10.736      12.825      15.144      17.407    
  19.101      19.755      19.368      18.553      17.461      18.553      19.873      20.385      19.607      17.783    
  15.510      13.280      11.324      9.7658      8.6064      7.7840      7.2473      6.9782      6.9782      7.2473    
  7.7841      8.6064      9.7658      11.324      13.280      15.510      17.783      19.607      20.385      19.873    
  18.553      17.461      19.675      20.743      21.158      20.528      19.043      17.177      15.324      13.695    
  12.400      11.418      10.688      10.181      9.9131      9.9131      10.181      10.688      11.418      12.400    
  13.695      15.324      17.177      19.043      20.528      21.158      20.743      19.675      18.792      18.792    
  20.743      21.522      21.493      20.578      19.115      17.514      16.031      14.810      13.860      13.112    
  12.526      12.131      11.990      12.131      12.526      13.112      13.860      14.810      16.031      17.514    
  19.115      20.578      21.493      21.522      20.742      19.749      19.302      19.749      21.158      21.493    
  21.124      20.193      19.028      17.890      16.931      16.174      15.539      14.973      14.504      14.227    
  14.227      14.504      14.973      15.538      16.174      16.931      17.890      19.028      20.193      21.124    
  21.493      21.158      20.385      19.755      19.755      20.385      20.528      20.578      20.193      19.571    
  18.927      18.400      18.008      17.655      17.257      16.805      16.417      16.261      16.417      16.805    