 running on   16 total cores
 distrk:  each k-point on   16 cores,    1 groups
 distr:  one band on    1 cores,   16 groups
 using from now: INCAR     
 vasp.5.4.1 24Jun15 (build May 02 2016 14:41:14) complex                        
  
 POSCAR found :  1 types and       2 ions
 scaLAPACK will be used

 ----------------------------------------------------------------------------- 
|                                                                             |
|           W    W    AA    RRRRR   N    N  II  N    N   GGGG   !!!           |
|           W    W   A  A   R    R  NN   N  II  NN   N  G    G  !!!           |
|           W    W  A    A  R    R  N N  N  II  N N  N  G       !!!           |
|           W WW W  AAAAAA  RRRRR   N  N N  II  N  N N  G  GGG   !            |
|           WW  WW  A    A  R   R   N   NN  II  N   NN  G    G                |
|           W    W  A    A  R    R  N    N  II  N    N   GGGG   !!!           |
|                                                                             |
|      For optimal performance we recommend to set                            |
|        NCORE= 4 - approx SQRT( number of cores)                             |
|      NCORE specifies how many cores store one orbital (NPAR=cpu/NCORE).     |
|      This setting can  greatly improve the performance of VASP for DFT.     |
|      The default, NPAR=number of cores might be grossly inefficient         |
|      on modern multi-core architectures or massively parallel machines.     |
|      Do your own testing !!!!                                               |
|      Unfortunately you need to use the default for GW and RPA calculations. |
|      (for HF NCORE is supported but not extensively tested yet)             |
|                                                                             |
 ----------------------------------------------------------------------------- 

 LDA part: xc-table for Pade appr. of Perdew
 POSCAR, INCAR and KPOINTS ok, starting setup
 WARNING: small aliasing (wrap around) errors must be expected
 FFT: planning ...
 WAVECAR not read
 entering main loop
       N       E                     dE             d eps       ncg     rms          rms(c)
DAV:   1    -0.110276867637E+02   -0.11028E+02   -0.50856E+03 20960   0.473E+02
DAV:   2    -0.164386725785E+02   -0.54110E+01   -0.54110E+01 26848   0.400E+01
DAV:   3    -0.164481932202E+02   -0.95206E-02   -0.95206E-02 21264   0.188E+00
DAV:   4    -0.164481961595E+02   -0.29393E-05   -0.29393E-05 34048   0.298E-02
DAV:   5    -0.164481961597E+02   -0.24329E-09   -0.24252E-09 21376   0.739E-05    0.532E+00
DAV:   6    -0.158328767710E+02    0.61532E+00   -0.45882E-01 21696   0.274E+00    0.291E+00
DAV:   7    -0.156238998346E+02    0.20898E+00   -0.50559E-01 23216   0.293E+00    0.383E-01
DAV:   8    -0.156257323129E+02   -0.18325E-02   -0.23610E-03 22160   0.299E-01    0.525E-02
DAV:   9    -0.156257801116E+02   -0.47799E-04   -0.17555E-04 27728   0.606E-02    0.138E-02
DAV:  10    -0.156257949557E+02   -0.14844E-04   -0.15482E-05 25024   0.230E-02    0.848E-04
DAV:  11    -0.156257949349E+02    0.20771E-07   -0.74770E-08 24576   0.176E-03
   1 F= -.15625795E+02 E0= -.15625795E+02  d E =-.156258E+02
 curvature:   0.00 expect dE= 0.000E+00 dE for cont linesearch  0.000E+00
 trial: gam= 0.00000 g(F)=  0.772E-44 g(S)=  0.298E+00 ort = 0.000E+00 (trialstep = 0.100E+01)
 search vector abs. value=  0.298E+00
 bond charge predicted
       N       E                     dE             d eps       ncg     rms          rms(c)
DAV:   1    -0.156976410887E+02   -0.71846E-01   -0.60728E+00 19376   0.121E+01    0.178E+00
DAV:   2    -0.156314630430E+02    0.66178E-01   -0.43656E-02 20896   0.905E-01    0.960E-01
DAV:   3    -0.156042042301E+02    0.27259E-01   -0.53597E-02 21824   0.893E-01    0.460E-02
DAV:   4    -0.156040559740E+02    0.14826E-03   -0.12881E-04 21296   0.747E-02    0.142E-02
DAV:   5    -0.156040470763E+02    0.88977E-05   -0.75789E-06 28096   0.182E-02    0.137E-03
DAV:   6    -0.156040469230E+02    0.15324E-06   -0.15236E-07 23872   0.237E-03
   2 F= -.15604047E+02 E0= -.15604047E+02  d E =0.217480E-01
 trial-energy change:    0.021748  1 .order    0.010885   -0.297561    0.319331
 step:   0.4561(harm=  0.4824)  dis= 0.00000  next Energy=   -15.692629 (dE=-0.668E-01)
 bond charge predicted
       N       E                     dE             d eps       ncg     rms          rms(c)
DAV:   1    -0.157191085920E+02   -0.11506E+00   -0.19053E+00 19424   0.708E+00    0.101E+00
DAV:   2    -0.156990914504E+02    0.20017E-01   -0.13000E-02 21088   0.503E-01    0.545E-01
DAV:   3    -0.156908078187E+02    0.82836E-02   -0.16027E-02 21984   0.498E-01    0.285E-02
DAV:   4    -0.156907610164E+02    0.46802E-04   -0.36172E-05 21104   0.411E-02    0.706E-03
DAV:   5    -0.156907599793E+02    0.10371E-05   -0.11337E-06 28608   0.748E-03    0.647E-04
DAV:   6    -0.156907599873E+02   -0.79187E-08   -0.30007E-08 13632   0.111E-03
   3 F= -.15690760E+02 E0= -.15690760E+02  d E =-.649651E-01
 curvature:  -0.24 expect dE=-0.172E-04 dE for cont linesearch -0.172E-04
 ZBRENT: interpolating
 opt :   0.4492  next Energy=   -15.690776 (dE=-0.650E-01)
 bond charge predicted
       N       E                     dE             d eps       ncg     rms          rms(c)
DAV:   1    -0.156907804250E+02   -0.20446E-04   -0.30787E-04 19456   0.893E-02    0.128E-02
DAV:   2    -0.156907774231E+02    0.30019E-05   -0.21239E-06 22352   0.648E-03    0.692E-03
DAV:   3    -0.156907759980E+02    0.14250E-05   -0.25882E-06 20592   0.630E-03    0.361E-04
DAV:   4    -0.156907760101E+02   -0.12045E-07   -0.62185E-09 11776   0.541E-04
   4 F= -.15690776E+02 E0= -.15690776E+02  d E =-.649811E-01
 curvature:  -0.22 expect dE=-0.445E-07 dE for cont linesearch -0.445E-07
 ZBRENT: interpolating
 opt :   0.4488  next Energy=   -15.690776 (dE=-0.650E-01)
 bond charge predicted
       N       E                     dE             d eps       ncg     rms          rms(c)
DAV:   1    -0.156907760412E+02   -0.43222E-07   -0.96838E-07 11568   0.507E-03    0.713E-04
DAV:   2    -0.156907760466E+02   -0.53561E-08   -0.13909E-08 11424   0.631E-04    0.385E-04
DAV:   3    -0.156907760409E+02    0.57530E-08   -0.77182E-09 11552   0.364E-04    0.365E-05
DAV:   4    -0.156907760416E+02   -0.70872E-09   -0.94721E-11 10768   0.674E-05
   5 F= -.15690776E+02 E0= -.15690776E+02  d E =-.649811E-01
 curvature:  -0.24 expect dE=-0.264E-10 dE for cont linesearch -0.264E-10
 ZBRENT: interpolating
 opt :   0.4488  next Energy=   -15.690776 (dE=-0.650E-01)
 bond charge predicted
       N       E                     dE             d eps       ncg     rms          rms(c)
DAV:   1    -0.156907760413E+02   -0.46566E-09   -0.60736E-10 11008   0.126E-04    0.312E-05
DAV:   2    -0.156907760416E+02   -0.32821E-09   -0.85386E-12 11104   0.162E-05    0.275E-05
DAV:   3    -0.156907760416E+02    0.57128E-10   -0.49560E-12 11184   0.940E-06    0.258E-05
DAV:   4    -0.156907760416E+02   -0.16769E-10    0.13104E-13 10608   0.202E-06
   6 F= -.15690776E+02 E0= -.15690776E+02  d E =-.649811E-01
 curvature:  -0.24 expect dE=-0.138E-12 dE for cont linesearch -0.138E-12
 trial: gam= 0.00000 g(F)=  0.610E-44 g(S)=  0.570E-12 ort =-0.412E-06 (trialstep = 0.890E+00)
 search vector abs. value=  0.101E-09
 reached required accuracy - stopping structural energy minimisation
 writing wavefunctions
