<?xml version="1.0" encoding="ISO-8859-1"?>
<modeling>
 <generator>
  <i name="program" type="string">vasp </i>
  <i name="version" type="string">5.4.1  </i>
  <i name="subversion" type="string">24Jun15 (build May 02 2016 14:41:14) complex                          parallel </i>
  <i name="platform" type="string">IFC91_ompi </i>
  <i name="date" type="string">2022 05 13 </i>
  <i name="time" type="string">12:14:59 </i>
 </generator>
 <incar>
  <i type="string" name="SYSTEM"> Diamond</i>
  <i type="string" name="PREC">normal</i>
  <i type="string" name="ALGO"> Normal</i>
  <i type="int" name="NELM">   100</i>
  <i type="int" name="NELMIN">     4</i>
  <i type="int" name="IBRION">     2</i>
  <i name="EDIFF">      0.00000100</i>
  <i name="EDIFFG">     -0.00001000</i>
  <i type="int" name="NSW">    20</i>
  <i type="int" name="ISIF">     3</i>
  <i name="ENCUT">    500.00000000</i>
  <i type="int" name="ISMEAR">     0</i>
  <i name="SIGMA">      0.10000000</i>
  <v type="int" name="KPOINT_BSE">    -1     0     0     0</v>
  <i type="int" name="NELM">   100</i>
 </incar>
 <kpoints>
  <generation param="listgenerated">
   <i name="divisions" type="int">     100 </i>
   <v>       0.00000000       0.00000000       0.00000000 </v>
   <v>       0.50000000       0.00000000       0.50000000 </v>
   <v>       0.37500000       0.37500000       0.75000000 </v>
   <v>       0.00000000       0.00000000       0.00000000 </v>
   <v>       0.50000000       0.50000000       0.50000000 </v>
   <v>       0.50000000       0.25000000       0.75000000 </v>
   <v>       0.50000000       0.00000000       0.50000000 </v>
  </generation>
  <varray name="kpointlist" >
   <v>       0.00000000       0.00000000       0.00000000 </v>
   <v>       0.00505051       0.00000000       0.00505051 </v>
   <v>       0.01010101       0.00000000       0.01010101 </v>
   <v>       0.01515152       0.00000000       0.01515152 </v>
   <v>       0.02020202       0.00000000       0.02020202 </v>
   <v>       0.02525253       0.00000000       0.02525253 </v>
   <v>       0.03030303       0.00000000       0.03030303 </v>
   <v>       0.03535354       0.00000000       0.03535354 </v>
   <v>       0.04040404       0.00000000       0.04040404 </v>
   <v>       0.04545455       0.00000000       0.04545455 </v>
   <v>       0.05050505       0.00000000       0.05050505 </v>
   <v>       0.05555556       0.00000000       0.05555556 </v>
   <v>       0.06060606       0.00000000       0.06060606 </v>
   <v>       0.06565657       0.00000000       0.06565657 </v>
   <v>       0.07070707       0.00000000       0.07070707 </v>
   <v>       0.07575758       0.00000000       0.07575758 </v>
   <v>       0.08080808       0.00000000       0.08080808 </v>
   <v>       0.08585859       0.00000000       0.08585859 </v>
   <v>       0.09090909       0.00000000       0.09090909 </v>
   <v>       0.09595960       0.00000000       0.09595960 </v>
   <v>       0.10101010       0.00000000       0.10101010 </v>
   <v>       0.10606061       0.00000000       0.10606061 </v>
   <v>       0.11111111       0.00000000       0.11111111 </v>
   <v>       0.11616162       0.00000000       0.11616162 </v>
   <v>       0.12121212       0.00000000       0.12121212 </v>
   <v>       0.12626263       0.00000000       0.12626263 </v>
   <v>       0.13131313       0.00000000       0.13131313 </v>
   <v>       0.13636364       0.00000000       0.13636364 </v>
   <v>       0.14141414       0.00000000       0.14141414 </v>
   <v>       0.14646465       0.00000000       0.14646465 </v>
   <v>       0.15151515       0.00000000       0.15151515 </v>
   <v>       0.15656566       0.00000000       0.15656566 </v>
   <v>       0.16161616       0.00000000       0.16161616 </v>
   <v>       0.16666667       0.00000000       0.16666667 </v>
   <v>       0.17171717       0.00000000       0.17171717 </v>
   <v>       0.17676768       0.00000000       0.17676768 </v>
   <v>       0.18181818       0.00000000       0.18181818 </v>
   <v>       0.18686869       0.00000000       0.18686869 </v>
   <v>       0.19191919       0.00000000       0.19191919 </v>
   <v>       0.19696970       0.00000000       0.19696970 </v>
   <v>       0.20202020       0.00000000       0.20202020 </v>
   <v>       0.20707071       0.00000000       0.20707071 </v>
   <v>       0.21212121       0.00000000       0.21212121 </v>
   <v>       0.21717172       0.00000000       0.21717172 </v>
   <v>       0.22222222       0.00000000       0.22222222 </v>
   <v>       0.22727273       0.00000000       0.22727273 </v>
   <v>       0.23232323       0.00000000       0.23232323 </v>
   <v>       0.23737374       0.00000000       0.23737374 </v>
   <v>       0.24242424       0.00000000       0.24242424 </v>
   <v>       0.24747475       0.00000000       0.24747475 </v>
   <v>       0.25252525       0.00000000       0.25252525 </v>
   <v>       0.25757576       0.00000000       0.25757576 </v>
   <v>       0.26262626       0.00000000       0.26262626 </v>
   <v>       0.26767677       0.00000000       0.26767677 </v>
   <v>       0.27272727       0.00000000       0.27272727 </v>
   <v>       0.27777778       0.00000000       0.27777778 </v>
   <v>       0.28282828       0.00000000       0.28282828 </v>
   <v>       0.28787879       0.00000000       0.28787879 </v>
   <v>       0.29292929       0.00000000       0.29292929 </v>
   <v>       0.29797980       0.00000000       0.29797980 </v>
   <v>       0.30303030       0.00000000       0.30303030 </v>
   <v>       0.30808081       0.00000000       0.30808081 </v>
   <v>       0.31313131       0.00000000       0.31313131 </v>
   <v>       0.31818182       0.00000000       0.31818182 </v>
   <v>       0.32323232       0.00000000       0.32323232 </v>
   <v>       0.32828283       0.00000000       0.32828283 </v>
   <v>       0.33333333       0.00000000       0.33333333 </v>
   <v>       0.33838384       0.00000000       0.33838384 </v>
   <v>       0.34343434       0.00000000       0.34343434 </v>
   <v>       0.34848485       0.00000000       0.34848485 </v>
   <v>       0.35353535       0.00000000       0.35353535 </v>
   <v>       0.35858586       0.00000000       0.35858586 </v>
   <v>       0.36363636       0.00000000       0.36363636 </v>
   <v>       0.36868687       0.00000000       0.36868687 </v>
   <v>       0.37373737       0.00000000       0.37373737 </v>
   <v>       0.37878788       0.00000000       0.37878788 </v>
   <v>       0.38383838       0.00000000       0.38383838 </v>
   <v>       0.38888889       0.00000000       0.38888889 </v>
   <v>       0.39393939       0.00000000       0.39393939 </v>
   <v>       0.39898990       0.00000000       0.39898990 </v>
   <v>       0.40404040       0.00000000       0.40404040 </v>
   <v>       0.40909091       0.00000000       0.40909091 </v>
   <v>       0.41414141       0.00000000       0.41414141 </v>
   <v>       0.41919192       0.00000000       0.41919192 </v>
   <v>       0.42424242       0.00000000       0.42424242 </v>
   <v>       0.42929293       0.00000000       0.42929293 </v>
   <v>       0.43434343       0.00000000       0.43434343 </v>
   <v>       0.43939394       0.00000000       0.43939394 </v>
   <v>       0.44444444       0.00000000       0.44444444 </v>
   <v>       0.44949495       0.00000000       0.44949495 </v>
   <v>       0.45454545       0.00000000       0.45454545 </v>
   <v>       0.45959596       0.00000000       0.45959596 </v>
   <v>       0.46464646       0.00000000       0.46464646 </v>
   <v>       0.46969697       0.00000000       0.46969697 </v>
   <v>       0.47474747       0.00000000       0.47474747 </v>
   <v>       0.47979798       0.00000000       0.47979798 </v>
   <v>       0.48484848       0.00000000       0.48484848 </v>
   <v>       0.48989899       0.00000000       0.48989899 </v>
   <v>       0.49494949       0.00000000       0.49494949 </v>
   <v>       0.50000000       0.00000000       0.50000000 </v>
   <v>       0.50000000       0.00000000       0.50000000 </v>
   <v>       0.50126263       0.00252525       0.50126263 </v>
   <v>       0.50252525       0.00505051       0.50252525 </v>
   <v>       0.50378788       0.00757576       0.50378788 </v>
   <v>       0.50505051       0.01010101       0.50505051 </v>
   <v>       0.50631313       0.01262626       0.50631313 </v>
   <v>       0.50757576       0.01515152       0.50757576 </v>
   <v>       0.50883838       0.01767677       0.50883838 </v>
   <v>       0.51010101       0.02020202       0.51010101 </v>
   <v>       0.51136364       0.02272727       0.51136364 </v>
   <v>       0.51262626       0.02525253       0.51262626 </v>
   <v>       0.51388889       0.02777778       0.51388889 </v>
   <v>       0.51515152       0.03030303       0.51515152 </v>
   <v>       0.51641414       0.03282828       0.51641414 </v>
   <v>       0.51767677       0.03535354       0.51767677 </v>
   <v>       0.51893939       0.03787879       0.51893939 </v>
   <v>       0.52020202       0.04040404       0.52020202 </v>
   <v>       0.52146465       0.04292929       0.52146465 </v>
   <v>       0.52272727       0.04545455       0.52272727 </v>
   <v>       0.52398990       0.04797980       0.52398990 </v>
   <v>       0.52525253       0.05050505       0.52525253 </v>
   <v>       0.52651515       0.05303030       0.52651515 </v>
   <v>       0.52777778       0.05555556       0.52777778 </v>
   <v>       0.52904040       0.05808081       0.52904040 </v>
   <v>       0.53030303       0.06060606       0.53030303 </v>
   <v>       0.53156566       0.06313131       0.53156566 </v>
   <v>       0.53282828       0.06565657       0.53282828 </v>
   <v>       0.53409091       0.06818182       0.53409091 </v>
   <v>       0.53535354       0.07070707       0.53535354 </v>
   <v>       0.53661616       0.07323232       0.53661616 </v>
   <v>       0.53787879       0.07575758       0.53787879 </v>
   <v>       0.53914141       0.07828283       0.53914141 </v>
   <v>       0.54040404       0.08080808       0.54040404 </v>
   <v>       0.54166667       0.08333333       0.54166667 </v>
   <v>       0.54292929       0.08585859       0.54292929 </v>
   <v>       0.54419192       0.08838384       0.54419192 </v>
   <v>       0.54545455       0.09090909       0.54545455 </v>
   <v>       0.54671717       0.09343434       0.54671717 </v>
   <v>       0.54797980       0.09595960       0.54797980 </v>
   <v>       0.54924242       0.09848485       0.54924242 </v>
   <v>       0.55050505       0.10101010       0.55050505 </v>
   <v>       0.55176768       0.10353535       0.55176768 </v>
   <v>       0.55303030       0.10606061       0.55303030 </v>
   <v>       0.55429293       0.10858586       0.55429293 </v>
   <v>       0.55555556       0.11111111       0.55555556 </v>
   <v>       0.55681818       0.11363636       0.55681818 </v>
   <v>       0.55808081       0.11616162       0.55808081 </v>
   <v>       0.55934343       0.11868687       0.55934343 </v>
   <v>       0.56060606       0.12121212       0.56060606 </v>
   <v>       0.56186869       0.12373737       0.56186869 </v>
   <v>       0.56313131       0.12626263       0.56313131 </v>
   <v>       0.56439394       0.12878788       0.56439394 </v>
   <v>       0.56565657       0.13131313       0.56565657 </v>
   <v>       0.56691919       0.13383838       0.56691919 </v>
   <v>       0.56818182       0.13636364       0.56818182 </v>
   <v>       0.56944444       0.13888889       0.56944444 </v>
   <v>       0.57070707       0.14141414       0.57070707 </v>
   <v>       0.57196970       0.14393939       0.57196970 </v>
   <v>       0.57323232       0.14646465       0.57323232 </v>
   <v>       0.57449495       0.14898990       0.57449495 </v>
   <v>       0.57575758       0.15151515       0.57575758 </v>
   <v>       0.57702020       0.15404040       0.57702020 </v>
   <v>       0.57828283       0.15656566       0.57828283 </v>
   <v>       0.57954545       0.15909091       0.57954545 </v>
   <v>       0.58080808       0.16161616       0.58080808 </v>
   <v>       0.58207071       0.16414141       0.58207071 </v>
   <v>       0.58333333       0.16666667       0.58333333 </v>
   <v>       0.58459596       0.16919192       0.58459596 </v>
   <v>       0.58585859       0.17171717       0.58585859 </v>
   <v>       0.58712121       0.17424242       0.58712121 </v>
   <v>       0.58838384       0.17676768       0.58838384 </v>
   <v>       0.58964646       0.17929293       0.58964646 </v>
   <v>       0.59090909       0.18181818       0.59090909 </v>
   <v>       0.59217172       0.18434343       0.59217172 </v>
   <v>       0.59343434       0.18686869       0.59343434 </v>
   <v>       0.59469697       0.18939394       0.59469697 </v>
   <v>       0.59595960       0.19191919       0.59595960 </v>
   <v>       0.59722222       0.19444444       0.59722222 </v>
   <v>       0.59848485       0.19696970       0.59848485 </v>
   <v>       0.59974747       0.19949495       0.59974747 </v>
   <v>       0.60101010       0.20202020       0.60101010 </v>
   <v>       0.60227273       0.20454545       0.60227273 </v>
   <v>       0.60353535       0.20707071       0.60353535 </v>
   <v>       0.60479798       0.20959596       0.60479798 </v>
   <v>       0.60606061       0.21212121       0.60606061 </v>
   <v>       0.60732323       0.21464646       0.60732323 </v>
   <v>       0.60858586       0.21717172       0.60858586 </v>
   <v>       0.60984848       0.21969697       0.60984848 </v>
   <v>       0.61111111       0.22222222       0.61111111 </v>
   <v>       0.61237374       0.22474747       0.61237374 </v>
   <v>       0.61363636       0.22727273       0.61363636 </v>
   <v>       0.61489899       0.22979798       0.61489899 </v>
   <v>       0.61616162       0.23232323       0.61616162 </v>
   <v>       0.61742424       0.23484848       0.61742424 </v>
   <v>       0.61868687       0.23737374       0.61868687 </v>
   <v>       0.61994949       0.23989899       0.61994949 </v>
   <v>       0.62121212       0.24242424       0.62121212 </v>
   <v>       0.62247475       0.24494949       0.62247475 </v>
   <v>       0.62373737       0.24747475       0.62373737 </v>
   <v>       0.62500000       0.25000000       0.62500000 </v>
   <v>       0.37500000       0.37500000       0.75000000 </v>
   <v>       0.37121212       0.37121212       0.74242424 </v>
   <v>       0.36742424       0.36742424       0.73484848 </v>
   <v>       0.36363636       0.36363636       0.72727273 </v>
   <v>       0.35984848       0.35984848       0.71969697 </v>
   <v>       0.35606061       0.35606061       0.71212121 </v>
   <v>       0.35227273       0.35227273       0.70454545 </v>
   <v>       0.34848485       0.34848485       0.69696970 </v>
   <v>       0.34469697       0.34469697       0.68939394 </v>
   <v>       0.34090909       0.34090909       0.68181818 </v>
   <v>       0.33712121       0.33712121       0.67424242 </v>
   <v>       0.33333333       0.33333333       0.66666667 </v>
   <v>       0.32954545       0.32954545       0.65909091 </v>
   <v>       0.32575758       0.32575758       0.65151515 </v>
   <v>       0.32196970       0.32196970       0.64393939 </v>
   <v>       0.31818182       0.31818182       0.63636364 </v>
   <v>       0.31439394       0.31439394       0.62878788 </v>
   <v>       0.31060606       0.31060606       0.62121212 </v>
   <v>       0.30681818       0.30681818       0.61363636 </v>
   <v>       0.30303030       0.30303030       0.60606061 </v>
   <v>       0.29924242       0.29924242       0.59848485 </v>
   <v>       0.29545455       0.29545455       0.59090909 </v>
   <v>       0.29166667       0.29166667       0.58333333 </v>
   <v>       0.28787879       0.28787879       0.57575758 </v>
   <v>       0.28409091       0.28409091       0.56818182 </v>
   <v>       0.28030303       0.28030303       0.56060606 </v>
   <v>       0.27651515       0.27651515       0.55303030 </v>
   <v>       0.27272727       0.27272727       0.54545455 </v>
   <v>       0.26893939       0.26893939       0.53787879 </v>
   <v>       0.26515152       0.26515152       0.53030303 </v>
   <v>       0.26136364       0.26136364       0.52272727 </v>
   <v>       0.25757576       0.25757576       0.51515152 </v>
   <v>       0.25378788       0.25378788       0.50757576 </v>
   <v>       0.25000000       0.25000000       0.50000000 </v>
   <v>       0.24621212       0.24621212       0.49242424 </v>
   <v>       0.24242424       0.24242424       0.48484848 </v>
   <v>       0.23863636       0.23863636       0.47727273 </v>
   <v>       0.23484848       0.23484848       0.46969697 </v>
   <v>       0.23106061       0.23106061       0.46212121 </v>
   <v>       0.22727273       0.22727273       0.45454545 </v>
   <v>       0.22348485       0.22348485       0.44696970 </v>
   <v>       0.21969697       0.21969697       0.43939394 </v>
   <v>       0.21590909       0.21590909       0.43181818 </v>
   <v>       0.21212121       0.21212121       0.42424242 </v>
   <v>       0.20833333       0.20833333       0.41666667 </v>
   <v>       0.20454545       0.20454545       0.40909091 </v>
   <v>       0.20075758       0.20075758       0.40151515 </v>
   <v>       0.19696970       0.19696970       0.39393939 </v>
   <v>       0.19318182       0.19318182       0.38636364 </v>
   <v>       0.18939394       0.18939394       0.37878788 </v>
   <v>       0.18560606       0.18560606       0.37121212 </v>
   <v>       0.18181818       0.18181818       0.36363636 </v>
   <v>       0.17803030       0.17803030       0.35606061 </v>
   <v>       0.17424242       0.17424242       0.34848485 </v>
   <v>       0.17045455       0.17045455       0.34090909 </v>
   <v>       0.16666667       0.16666667       0.33333333 </v>
   <v>       0.16287879       0.16287879       0.32575758 </v>
   <v>       0.15909091       0.15909091       0.31818182 </v>
   <v>       0.15530303       0.15530303       0.31060606 </v>
   <v>       0.15151515       0.15151515       0.30303030 </v>
   <v>       0.14772727       0.14772727       0.29545455 </v>
   <v>       0.14393939       0.14393939       0.28787879 </v>
   <v>       0.14015152       0.14015152       0.28030303 </v>
   <v>       0.13636364       0.13636364       0.27272727 </v>
   <v>       0.13257576       0.13257576       0.26515152 </v>
   <v>       0.12878788       0.12878788       0.25757576 </v>
   <v>       0.12500000       0.12500000       0.25000000 </v>
   <v>       0.12121212       0.12121212       0.24242424 </v>
   <v>       0.11742424       0.11742424       0.23484848 </v>
   <v>       0.11363636       0.11363636       0.22727273 </v>
   <v>       0.10984848       0.10984848       0.21969697 </v>
   <v>       0.10606061       0.10606061       0.21212121 </v>
   <v>       0.10227273       0.10227273       0.20454545 </v>
   <v>       0.09848485       0.09848485       0.19696970 </v>
   <v>       0.09469697       0.09469697       0.18939394 </v>
   <v>       0.09090909       0.09090909       0.18181818 </v>
   <v>       0.08712121       0.08712121       0.17424242 </v>
   <v>       0.08333333       0.08333333       0.16666667 </v>
   <v>       0.07954545       0.07954545       0.15909091 </v>
   <v>       0.07575758       0.07575758       0.15151515 </v>
   <v>       0.07196970       0.07196970       0.14393939 </v>
   <v>       0.06818182       0.06818182       0.13636364 </v>
   <v>       0.06439394       0.06439394       0.12878788 </v>
   <v>       0.06060606       0.06060606       0.12121212 </v>
   <v>       0.05681818       0.05681818       0.11363636 </v>
   <v>       0.05303030       0.05303030       0.10606061 </v>
   <v>       0.04924242       0.04924242       0.09848485 </v>
   <v>       0.04545455       0.04545455       0.09090909 </v>
   <v>       0.04166667       0.04166667       0.08333333 </v>
   <v>       0.03787879       0.03787879       0.07575758 </v>
   <v>       0.03409091       0.03409091       0.06818182 </v>
   <v>       0.03030303       0.03030303       0.06060606 </v>
   <v>       0.02651515       0.02651515       0.05303030 </v>
   <v>       0.02272727       0.02272727       0.04545455 </v>
   <v>       0.01893939       0.01893939       0.03787879 </v>
   <v>       0.01515152       0.01515152       0.03030303 </v>
   <v>       0.01136364       0.01136364       0.02272727 </v>
   <v>       0.00757576       0.00757576       0.01515152 </v>
   <v>       0.00378788       0.00378788       0.00757576 </v>
   <v>       0.00000000       0.00000000       0.00000000 </v>
   <v>       0.00000000       0.00000000       0.00000000 </v>
   <v>       0.00505051       0.00505051       0.00505051 </v>
   <v>       0.01010101       0.01010101       0.01010101 </v>
   <v>       0.01515152       0.01515152       0.01515152 </v>
   <v>       0.02020202       0.02020202       0.02020202 </v>
   <v>       0.02525253       0.02525253       0.02525253 </v>
   <v>       0.03030303       0.03030303       0.03030303 </v>
   <v>       0.03535354       0.03535354       0.03535354 </v>
   <v>       0.04040404       0.04040404       0.04040404 </v>
   <v>       0.04545455       0.04545455       0.04545455 </v>
   <v>       0.05050505       0.05050505       0.05050505 </v>
   <v>       0.05555556       0.05555556       0.05555556 </v>
   <v>       0.06060606       0.06060606       0.06060606 </v>
   <v>       0.06565657       0.06565657       0.06565657 </v>
   <v>       0.07070707       0.07070707       0.07070707 </v>
   <v>       0.07575758       0.07575758       0.07575758 </v>
   <v>       0.08080808       0.08080808       0.08080808 </v>
   <v>       0.08585859       0.08585859       0.08585859 </v>
   <v>       0.09090909       0.09090909       0.09090909 </v>
   <v>       0.09595960       0.09595960       0.09595960 </v>
   <v>       0.10101010       0.10101010       0.10101010 </v>
   <v>       0.10606061       0.10606061       0.10606061 </v>
   <v>       0.11111111       0.11111111       0.11111111 </v>
   <v>       0.11616162       0.11616162       0.11616162 </v>
   <v>       0.12121212       0.12121212       0.12121212 </v>
   <v>       0.12626263       0.12626263       0.12626263 </v>
   <v>       0.13131313       0.13131313       0.13131313 </v>
   <v>       0.13636364       0.13636364       0.13636364 </v>
   <v>       0.14141414       0.14141414       0.14141414 </v>
   <v>       0.14646465       0.14646465       0.14646465 </v>
   <v>       0.15151515       0.15151515       0.15151515 </v>
   <v>       0.15656566       0.15656566       0.15656566 </v>
   <v>       0.16161616       0.16161616       0.16161616 </v>
   <v>       0.16666667       0.16666667       0.16666667 </v>
   <v>       0.17171717       0.17171717       0.17171717 </v>
   <v>       0.17676768       0.17676768       0.17676768 </v>
   <v>       0.18181818       0.18181818       0.18181818 </v>
   <v>       0.18686869       0.18686869       0.18686869 </v>
   <v>       0.19191919       0.19191919       0.19191919 </v>
   <v>       0.19696970       0.19696970       0.19696970 </v>
   <v>       0.20202020       0.20202020       0.20202020 </v>
   <v>       0.20707071       0.20707071       0.20707071 </v>
   <v>       0.21212121       0.21212121       0.21212121 </v>
   <v>       0.21717172       0.21717172       0.21717172 </v>
   <v>       0.22222222       0.22222222       0.22222222 </v>
   <v>       0.22727273       0.22727273       0.22727273 </v>
   <v>       0.23232323       0.23232323       0.23232323 </v>
   <v>       0.23737374       0.23737374       0.23737374 </v>
   <v>       0.24242424       0.24242424       0.24242424 </v>
   <v>       0.24747475       0.24747475       0.24747475 </v>
   <v>       0.25252525       0.25252525       0.25252525 </v>
   <v>       0.25757576       0.25757576       0.25757576 </v>
   <v>       0.26262626       0.26262626       0.26262626 </v>
   <v>       0.26767677       0.26767677       0.26767677 </v>
   <v>       0.27272727       0.27272727       0.27272727 </v>
   <v>       0.27777778       0.27777778       0.27777778 </v>
   <v>       0.28282828       0.28282828       0.28282828 </v>
   <v>       0.28787879       0.28787879       0.28787879 </v>
   <v>       0.29292929       0.29292929       0.29292929 </v>
   <v>       0.29797980       0.29797980       0.29797980 </v>
   <v>       0.30303030       0.30303030       0.30303030 </v>
   <v>       0.30808081       0.30808081       0.30808081 </v>
   <v>       0.31313131       0.31313131       0.31313131 </v>
   <v>       0.31818182       0.31818182       0.31818182 </v>
   <v>       0.32323232       0.32323232       0.32323232 </v>
   <v>       0.32828283       0.32828283       0.32828283 </v>
   <v>       0.33333333       0.33333333       0.33333333 </v>
   <v>       0.33838384       0.33838384       0.33838384 </v>
   <v>       0.34343434       0.34343434       0.34343434 </v>
   <v>       0.34848485       0.34848485       0.34848485 </v>
   <v>       0.35353535       0.35353535       0.35353535 </v>
   <v>       0.35858586       0.35858586       0.35858586 </v>
   <v>       0.36363636       0.36363636       0.36363636 </v>
   <v>       0.36868687       0.36868687       0.36868687 </v>
   <v>       0.37373737       0.37373737       0.37373737 </v>
   <v>       0.37878788       0.37878788       0.37878788 </v>
   <v>       0.38383838       0.38383838       0.38383838 </v>
   <v>       0.38888889       0.38888889       0.38888889 </v>
   <v>       0.39393939       0.39393939       0.39393939 </v>
   <v>       0.39898990       0.39898990       0.39898990 </v>
   <v>       0.40404040       0.40404040       0.40404040 </v>
   <v>       0.40909091       0.40909091       0.40909091 </v>
   <v>       0.41414141       0.41414141       0.41414141 </v>
   <v>       0.41919192       0.41919192       0.41919192 </v>
   <v>       0.42424242       0.42424242       0.42424242 </v>
   <v>       0.42929293       0.42929293       0.42929293 </v>
   <v>       0.43434343       0.43434343       0.43434343 </v>
   <v>       0.43939394       0.43939394       0.43939394 </v>
   <v>       0.44444444       0.44444444       0.44444444 </v>
   <v>       0.44949495       0.44949495       0.44949495 </v>
   <v>       0.45454545       0.45454545       0.45454545 </v>
   <v>       0.45959596       0.45959596       0.45959596 </v>
   <v>       0.46464646       0.46464646       0.46464646 </v>
   <v>       0.46969697       0.46969697       0.46969697 </v>
   <v>       0.47474747       0.47474747       0.47474747 </v>
   <v>       0.47979798       0.47979798       0.47979798 </v>
   <v>       0.48484848       0.48484848       0.48484848 </v>
   <v>       0.48989899       0.48989899       0.48989899 </v>
   <v>       0.49494949       0.49494949       0.49494949 </v>
   <v>       0.50000000       0.50000000       0.50000000 </v>
   <v>       0.50000000       0.50000000       0.50000000 </v>
   <v>       0.50000000       0.49747475       0.50252525 </v>
   <v>       0.50000000       0.49494949       0.50505051 </v>
   <v>       0.50000000       0.49242424       0.50757576 </v>
   <v>       0.50000000       0.48989899       0.51010101 </v>
   <v>       0.50000000       0.48737374       0.51262626 </v>
   <v>       0.50000000       0.48484848       0.51515152 </v>
   <v>       0.50000000       0.48232323       0.51767677 </v>
   <v>       0.50000000       0.47979798       0.52020202 </v>
   <v>       0.50000000       0.47727273       0.52272727 </v>
   <v>       0.50000000       0.47474747       0.52525253 </v>
   <v>       0.50000000       0.47222222       0.52777778 </v>
   <v>       0.50000000       0.46969697       0.53030303 </v>
   <v>       0.50000000       0.46717172       0.53282828 </v>
   <v>       0.50000000       0.46464646       0.53535354 </v>
   <v>       0.50000000       0.46212121       0.53787879 </v>
   <v>       0.50000000       0.45959596       0.54040404 </v>
   <v>       0.50000000       0.45707071       0.54292929 </v>
   <v>       0.50000000       0.45454545       0.54545455 </v>
   <v>       0.50000000       0.45202020       0.54797980 </v>
   <v>       0.50000000       0.44949495       0.55050505 </v>
   <v>       0.50000000       0.44696970       0.55303030 </v>
   <v>       0.50000000       0.44444444       0.55555556 </v>
   <v>       0.50000000       0.44191919       0.55808081 </v>
   <v>       0.50000000       0.43939394       0.56060606 </v>
   <v>       0.50000000       0.43686869       0.56313131 </v>
   <v>       0.50000000       0.43434343       0.56565657 </v>
   <v>       0.50000000       0.43181818       0.56818182 </v>
   <v>       0.50000000       0.42929293       0.57070707 </v>
   <v>       0.50000000       0.42676768       0.57323232 </v>
   <v>       0.50000000       0.42424242       0.57575758 </v>
   <v>       0.50000000       0.42171717       0.57828283 </v>
   <v>       0.50000000       0.41919192       0.58080808 </v>
   <v>       0.50000000       0.41666667       0.58333333 </v>
   <v>       0.50000000       0.41414141       0.58585859 </v>
   <v>       0.50000000       0.41161616       0.58838384 </v>
   <v>       0.50000000       0.40909091       0.59090909 </v>
   <v>       0.50000000       0.40656566       0.59343434 </v>
   <v>       0.50000000       0.40404040       0.59595960 </v>
   <v>       0.50000000       0.40151515       0.59848485 </v>
   <v>       0.50000000       0.39898990       0.60101010 </v>
   <v>       0.50000000       0.39646465       0.60353535 </v>
   <v>       0.50000000       0.39393939       0.60606061 </v>
   <v>       0.50000000       0.39141414       0.60858586 </v>
   <v>       0.50000000       0.38888889       0.61111111 </v>
   <v>       0.50000000       0.38636364       0.61363636 </v>
   <v>       0.50000000       0.38383838       0.61616162 </v>
   <v>       0.50000000       0.38131313       0.61868687 </v>
   <v>       0.50000000       0.37878788       0.62121212 </v>
   <v>       0.50000000       0.37626263       0.62373737 </v>
   <v>       0.50000000       0.37373737       0.62626263 </v>
   <v>       0.50000000       0.37121212       0.62878788 </v>
   <v>       0.50000000       0.36868687       0.63131313 </v>
   <v>       0.50000000       0.36616162       0.63383838 </v>
   <v>       0.50000000       0.36363636       0.63636364 </v>
   <v>       0.50000000       0.36111111       0.63888889 </v>
   <v>       0.50000000       0.35858586       0.64141414 </v>
   <v>       0.50000000       0.35606061       0.64393939 </v>
   <v>       0.50000000       0.35353535       0.64646465 </v>
   <v>       0.50000000       0.35101010       0.64898990 </v>
   <v>       0.50000000       0.34848485       0.65151515 </v>
   <v>       0.50000000       0.34595960       0.65404040 </v>
   <v>       0.50000000       0.34343434       0.65656566 </v>
   <v>       0.50000000       0.34090909       0.65909091 </v>
   <v>       0.50000000       0.33838384       0.66161616 </v>
   <v>       0.50000000       0.33585859       0.66414141 </v>
   <v>       0.50000000       0.33333333       0.66666667 </v>
   <v>       0.50000000       0.33080808       0.66919192 </v>
   <v>       0.50000000       0.32828283       0.67171717 </v>
   <v>       0.50000000       0.32575758       0.67424242 </v>
   <v>       0.50000000       0.32323232       0.67676768 </v>
   <v>       0.50000000       0.32070707       0.67929293 </v>
   <v>       0.50000000       0.31818182       0.68181818 </v>
   <v>       0.50000000       0.31565657       0.68434343 </v>
   <v>       0.50000000       0.31313131       0.68686869 </v>
   <v>       0.50000000       0.31060606       0.68939394 </v>
   <v>       0.50000000       0.30808081       0.69191919 </v>
   <v>       0.50000000       0.30555556       0.69444444 </v>
   <v>       0.50000000       0.30303030       0.69696970 </v>
   <v>       0.50000000       0.30050505       0.69949495 </v>
   <v>       0.50000000       0.29797980       0.70202020 </v>
   <v>       0.50000000       0.29545455       0.70454545 </v>
   <v>       0.50000000       0.29292929       0.70707071 </v>
   <v>       0.50000000       0.29040404       0.70959596 </v>
   <v>       0.50000000       0.28787879       0.71212121 </v>
   <v>       0.50000000       0.28535354       0.71464646 </v>
   <v>       0.50000000       0.28282828       0.71717172 </v>
   <v>       0.50000000       0.28030303       0.71969697 </v>
   <v>       0.50000000       0.27777778       0.72222222 </v>
   <v>       0.50000000       0.27525253       0.72474747 </v>
   <v>       0.50000000       0.27272727       0.72727273 </v>
   <v>       0.50000000       0.27020202       0.72979798 </v>
   <v>       0.50000000       0.26767677       0.73232323 </v>
   <v>       0.50000000       0.26515152       0.73484848 </v>
   <v>       0.50000000       0.26262626       0.73737374 </v>
   <v>       0.50000000       0.26010101       0.73989899 </v>
   <v>       0.50000000       0.25757576       0.74242424 </v>
   <v>       0.50000000       0.25505051       0.74494949 </v>
   <v>       0.50000000       0.25252525       0.74747475 </v>
   <v>       0.50000000       0.25000000       0.75000000 </v>
   <v>       0.50000000       0.25000000       0.75000000 </v>
   <v>       0.50000000       0.24747475       0.74747475 </v>
   <v>       0.50000000       0.24494949       0.74494949 </v>
   <v>       0.50000000       0.24242424       0.74242424 </v>
   <v>       0.50000000       0.23989899       0.73989899 </v>
   <v>       0.50000000       0.23737374       0.73737374 </v>
   <v>       0.50000000       0.23484848       0.73484848 </v>
   <v>       0.50000000       0.23232323       0.73232323 </v>
   <v>       0.50000000       0.22979798       0.72979798 </v>
   <v>       0.50000000       0.22727273       0.72727273 </v>
   <v>       0.50000000       0.22474747       0.72474747 </v>
   <v>       0.50000000       0.22222222       0.72222222 </v>
   <v>       0.50000000       0.21969697       0.71969697 </v>
   <v>       0.50000000       0.21717172       0.71717172 </v>
   <v>       0.50000000       0.21464646       0.71464646 </v>
   <v>       0.50000000       0.21212121       0.71212121 </v>
   <v>       0.50000000       0.20959596       0.70959596 </v>
   <v>       0.50000000       0.20707071       0.70707071 </v>
   <v>       0.50000000       0.20454545       0.70454545 </v>
   <v>       0.50000000       0.20202020       0.70202020 </v>
   <v>       0.50000000       0.19949495       0.69949495 </v>
   <v>       0.50000000       0.19696970       0.69696970 </v>
   <v>       0.50000000       0.19444444       0.69444444 </v>
   <v>       0.50000000       0.19191919       0.69191919 </v>
   <v>       0.50000000       0.18939394       0.68939394 </v>
   <v>       0.50000000       0.18686869       0.68686869 </v>
   <v>       0.50000000       0.18434343       0.68434343 </v>
   <v>       0.50000000       0.18181818       0.68181818 </v>
   <v>       0.50000000       0.17929293       0.67929293 </v>
   <v>       0.50000000       0.17676768       0.67676768 </v>
   <v>       0.50000000       0.17424242       0.67424242 </v>
   <v>       0.50000000       0.17171717       0.67171717 </v>
   <v>       0.50000000       0.16919192       0.66919192 </v>
   <v>       0.50000000       0.16666667       0.66666667 </v>
   <v>       0.50000000       0.16414141       0.66414141 </v>
   <v>       0.50000000       0.16161616       0.66161616 </v>
   <v>       0.50000000       0.15909091       0.65909091 </v>
   <v>       0.50000000       0.15656566       0.65656566 </v>
   <v>       0.50000000       0.15404040       0.65404040 </v>
   <v>       0.50000000       0.15151515       0.65151515 </v>
   <v>       0.50000000       0.14898990       0.64898990 </v>
   <v>       0.50000000       0.14646465       0.64646465 </v>
   <v>       0.50000000       0.14393939       0.64393939 </v>
   <v>       0.50000000       0.14141414       0.64141414 </v>
   <v>       0.50000000       0.13888889       0.63888889 </v>
   <v>       0.50000000       0.13636364       0.63636364 </v>
   <v>       0.50000000       0.13383838       0.63383838 </v>
   <v>       0.50000000       0.13131313       0.63131313 </v>
   <v>       0.50000000       0.12878788       0.62878788 </v>
   <v>       0.50000000       0.12626263       0.62626263 </v>
   <v>       0.50000000       0.12373737       0.62373737 </v>
   <v>       0.50000000       0.12121212       0.62121212 </v>
   <v>       0.50000000       0.11868687       0.61868687 </v>
   <v>       0.50000000       0.11616162       0.61616162 </v>
   <v>       0.50000000       0.11363636       0.61363636 </v>
   <v>       0.50000000       0.11111111       0.61111111 </v>
   <v>       0.50000000       0.10858586       0.60858586 </v>
   <v>       0.50000000       0.10606061       0.60606061 </v>
   <v>       0.50000000       0.10353535       0.60353535 </v>
   <v>       0.50000000       0.10101010       0.60101010 </v>
   <v>       0.50000000       0.09848485       0.59848485 </v>
   <v>       0.50000000       0.09595960       0.59595960 </v>
   <v>       0.50000000       0.09343434       0.59343434 </v>
   <v>       0.50000000       0.09090909       0.59090909 </v>
   <v>       0.50000000       0.08838384       0.58838384 </v>
   <v>       0.50000000       0.08585859       0.58585859 </v>
   <v>       0.50000000       0.08333333       0.58333333 </v>
   <v>       0.50000000       0.08080808       0.58080808 </v>
   <v>       0.50000000       0.07828283       0.57828283 </v>
   <v>       0.50000000       0.07575758       0.57575758 </v>
   <v>       0.50000000       0.07323232       0.57323232 </v>
   <v>       0.50000000       0.07070707       0.57070707 </v>
   <v>       0.50000000       0.06818182       0.56818182 </v>
   <v>       0.50000000       0.06565657       0.56565657 </v>
   <v>       0.50000000       0.06313131       0.56313131 </v>
   <v>       0.50000000       0.06060606       0.56060606 </v>
   <v>       0.50000000       0.05808081       0.55808081 </v>
   <v>       0.50000000       0.05555556       0.55555556 </v>
   <v>       0.50000000       0.05303030       0.55303030 </v>
   <v>       0.50000000       0.05050505       0.55050505 </v>
   <v>       0.50000000       0.04797980       0.54797980 </v>
   <v>       0.50000000       0.04545455       0.54545455 </v>
   <v>       0.50000000       0.04292929       0.54292929 </v>
   <v>       0.50000000       0.04040404       0.54040404 </v>
   <v>       0.50000000       0.03787879       0.53787879 </v>
   <v>       0.50000000       0.03535354       0.53535354 </v>
   <v>       0.50000000       0.03282828       0.53282828 </v>
   <v>       0.50000000       0.03030303       0.53030303 </v>
   <v>       0.50000000       0.02777778       0.52777778 </v>
   <v>       0.50000000       0.02525253       0.52525253 </v>
   <v>       0.50000000       0.02272727       0.52272727 </v>
   <v>       0.50000000       0.02020202       0.52020202 </v>
   <v>       0.50000000       0.01767677       0.51767677 </v>
   <v>       0.50000000       0.01515152       0.51515152 </v>
   <v>       0.50000000       0.01262626       0.51262626 </v>
   <v>       0.50000000       0.01010101       0.51010101 </v>
   <v>       0.50000000       0.00757576       0.50757576 </v>
   <v>       0.50000000       0.00505051       0.50505051 </v>
   <v>       0.50000000       0.00252525       0.50252525 </v>
   <v>       0.50000000       0.00000000       0.50000000 </v>
  </varray>
  <varray name="weights" >
   <v>       0.00166667 </v>
   <v>       0.00166667 </v>
   <v>       0.00166667 </v>
   <v>       0.00166667 </v>
   <v>       0.00166667 </v>
   <v>       0.00166667 </v>
   <v>       0.00166667 </v>
   <v>       0.00166667 </v>
   <v>       0.00166667 </v>
   <v>       0.00166667 </v>
   <v>       0.00166667 </v>
   <v>       0.00166667 </v>
   <v>       0.00166667 </v>
   <v>       0.00166667 </v>
   <v>       0.00166667 </v>
   <v>       0.00166667 </v>
   <v>       0.00166667 </v>
   <v>       0.00166667 </v>
   <v>       0.00166667 </v>
   <v>       0.00166667 </v>
   <v>       0.00166667 </v>
   <v>       0.00166667 </v>
   <v>       0.00166667 </v>
   <v>       0.00166667 </v>
   <v>       0.00166667 </v>
   <v>       0.00166667 </v>
   <v>       0.00166667 </v>
   <v>       0.00166667 </v>
   <v>       0.00166667 </v>
   <v>       0.00166667 </v>
   <v>       0.00166667 </v>
   <v>       0.00166667 </v>
   <v>       0.00166667 </v>
   <v>       0.00166667 </v>
   <v>       0.00166667 </v>
   <v>       0.00166667 </v>
   <v>       0.00166667 </v>
   <v>       0.00166667 </v>
   <v>       0.00166667 </v>
   <v>       0.00166667 </v>
   <v>       0.00166667 </v>
   <v>       0.00166667 </v>
   <v>       0.00166667 </v>
   <v>       0.00166667 </v>
   <v>       0.00166667 </v>
   <v>       0.00166667 </v>
   <v>       0.00166667 </v>
   <v>       0.00166667 </v>
   <v>       0.00166667 </v>
   <v>       0.00166667 </v>
   <v>       0.00166667 </v>
   <v>       0.00166667 </v>
   <v>       0.00166667 </v>
   <v>       0.00166667 </v>
   <v>       0.00166667 </v>
   <v>       0.00166667 </v>
   <v>       0.00166667 </v>
   <v>       0.00166667 </v>
   <v>       0.00166667 </v>
   <v>       0.00166667 </v>
   <v>       0.00166667 </v>
   <v>       0.00166667 </v>
   <v>       0.00166667 </v>
   <v>       0.00166667 </v>
   <v>       0.00166667 </v>
   <v>       0.00166667 </v>
   <v>       0.00166667 </v>
   <v>       0.00166667 </v>
   <v>       0.00166667 </v>
   <v>       0.00166667 </v>
   <v>       0.00166667 </v>
   <v>       0.00166667 </v>
   <v>       0.00166667 </v>
   <v>       0.00166667 </v>
   <v>       0.00166667 </v>
   <v>       0.00166667 </v>
   <v>       0.00166667 </v>
   <v>       0.00166667 </v>
   <v>       0.00166667 </v>
   <v>       0.00166667 </v>
   <v>       0.00166667 </v>
   <v>       0.00166667 </v>
   <v>       0.00166667 </v>
   <v>       0.00166667 </v>
   <v>       0.00166667 </v>
   <v>       0.00166667 </v>
   <v>       0.00166667 </v>
   <v>       0.00166667 </v>
   <v>       0.00166667 </v>
   <v>       0.00166667 </v>
   <v>       0.00166667 </v>
   <v>       0.00166667 </v>
   <v>       0.00166667 </v>
   <v>       0.00166667 </v>
   <v>       0.00166667 </v>
   <v>       0.00166667 </v>
   <v>       0.00166667 </v>
   <v>       0.00166667 </v>
   <v>       0.00166667 </v>
   <v>       0.00166667 </v>
   <v>       0.00166667 </v>
   <v>       0.00166667 </v>
   <v>       0.00166667 </v>
   <v>       0.00166667 </v>
   <v>       0.00166667 </v>
   <v>       0.00166667 </v>
   <v>       0.00166667 </v>
   <v>       0.00166667 </v>
   <v>       0.00166667 </v>
   <v>       0.00166667 </v>
   <v>       0.00166667 </v>
   <v>       0.00166667 </v>
   <v>       0.00166667 </v>
   <v>       0.00166667 </v>
   <v>       0.00166667 </v>
   <v>       0.00166667 </v>
   <v>       0.00166667 </v>
   <v>       0.00166667 </v>
   <v>       0.00166667 </v>
   <v>       0.00166667 </v>
   <v>       0.00166667 </v>
   <v>       0.00166667 </v>
   <v>       0.00166667 </v>
   <v>       0.00166667 </v>
   <v>       0.00166667 </v>
   <v>       0.00166667 </v>
   <v>       0.00166667 </v>
   <v>       0.00166667 </v>
   <v>       0.00166667 </v>
   <v>       0.00166667 </v>
   <v>       0.00166667 </v>
   <v>       0.00166667 </v>
   <v>       0.00166667 </v>
   <v>       0.00166667 </v>
   <v>       0.00166667 </v>
   <v>       0.00166667 </v>
   <v>       0.00166667 </v>
   <v>       0.00166667 </v>
   <v>       0.00166667 </v>
   <v>       0.00166667 </v>
   <v>       0.00166667 </v>
   <v>       0.00166667 </v>
   <v>       0.00166667 </v>
   <v>       0.00166667 </v>
   <v>       0.00166667 </v>
   <v>       0.00166667 </v>
   <v>       0.00166667 </v>
   <v>       0.00166667 </v>
   <v>       0.00166667 </v>
   <v>       0.00166667 </v>
   <v>       0.00166667 </v>
   <v>       0.00166667 </v>
   <v>       0.00166667 </v>
   <v>       0.00166667 </v>
   <v>       0.00166667 </v>
   <v>       0.00166667 </v>
   <v>       0.00166667 </v>
   <v>       0.00166667 </v>
   <v>       0.00166667 </v>
   <v>       0.00166667 </v>
   <v>       0.00166667 </v>
   <v>       0.00166667 </v>
   <v>       0.00166667 </v>
   <v>       0.00166667 </v>
   <v>       0.00166667 </v>
   <v>       0.00166667 </v>
   <v>       0.00166667 </v>
   <v>       0.00166667 </v>
   <v>       0.00166667 </v>
   <v>       0.00166667 </v>
   <v>       0.00166667 </v>
   <v>       0.00166667 </v>
   <v>       0.00166667 </v>
   <v>       0.00166667 </v>
   <v>       0.00166667 </v>
   <v>       0.00166667 </v>
   <v>       0.00166667 </v>
   <v>       0.00166667 </v>
   <v>       0.00166667 </v>
   <v>       0.00166667 </v>
   <v>       0.00166667 </v>
   <v>       0.00166667 </v>
   <v>       0.00166667 </v>
   <v>       0.00166667 </v>
   <v>       0.00166667 </v>
   <v>       0.00166667 </v>
   <v>       0.00166667 </v>
   <v>       0.00166667 </v>
   <v>       0.00166667 </v>
   <v>       0.00166667 </v>
   <v>       0.00166667 </v>
   <v>       0.00166667 </v>
   <v>       0.00166667 </v>
   <v>       0.00166667 </v>
   <v>       0.00166667 </v>
   <v>       0.00166667 </v>
   <v>       0.00166667 </v>
   <v>       0.00166667 </v>
   <v>       0.00166667 </v>
   <v>       0.00166667 </v>
   <v>       0.00166667 </v>
   <v>       0.00166667 </v>
   <v>       0.00166667 </v>
   <v>       0.00166667 </v>
   <v>       0.00166667 </v>
   <v>       0.00166667 </v>
   <v>       0.00166667 </v>
   <v>       0.00166667 </v>
   <v>       0.00166667 </v>
   <v>       0.00166667 </v>
   <v>       0.00166667 </v>
   <v>       0.00166667 </v>
   <v>       0.00166667 </v>
   <v>       0.00166667 </v>
   <v>       0.00166667 </v>
   <v>       0.00166667 </v>
   <v>       0.00166667 </v>
   <v>       0.00166667 </v>
   <v>       0.00166667 </v>
   <v>       0.00166667 </v>
   <v>       0.00166667 </v>
   <v>       0.00166667 </v>
   <v>       0.00166667 </v>
   <v>       0.00166667 </v>
   <v>       0.00166667 </v>
   <v>       0.00166667 </v>
   <v>       0.00166667 </v>
   <v>       0.00166667 </v>
   <v>       0.00166667 </v>
   <v>       0.00166667 </v>
   <v>       0.00166667 </v>
   <v>       0.00166667 </v>
   <v>       0.00166667 </v>
   <v>       0.00166667 </v>
   <v>       0.00166667 </v>
   <v>       0.00166667 </v>
   <v>       0.00166667 </v>
   <v>       0.00166667 </v>
   <v>       0.00166667 </v>
   <v>       0.00166667 </v>
   <v>       0.00166667 </v>
   <v>       0.00166667 </v>
   <v>       0.00166667 </v>
   <v>       0.00166667 </v>
   <v>       0.00166667 </v>
   <v>       0.00166667 </v>
   <v>       0.00166667 </v>
   <v>       0.00166667 </v>
   <v>       0.00166667 </v>
   <v>       0.00166667 </v>
   <v>       0.00166667 </v>
   <v>       0.00166667 </v>
   <v>       0.00166667 </v>
   <v>       0.00166667 </v>
   <v>       0.00166667 </v>
   <v>       0.00166667 </v>
   <v>       0.00166667 </v>
   <v>       0.00166667 </v>
   <v>       0.00166667 </v>
   <v>       0.00166667 </v>
   <v>       0.00166667 </v>
   <v>       0.00166667 </v>
   <v>       0.00166667 </v>
   <v>       0.00166667 </v>
   <v>       0.00166667 </v>
   <v>       0.00166667 </v>
   <v>       0.00166667 </v>
   <v>       0.00166667 </v>
   <v>       0.00166667 </v>
   <v>       0.00166667 </v>
   <v>       0.00166667 </v>
   <v>       0.00166667 </v>
   <v>       0.00166667 </v>
   <v>       0.00166667 </v>
   <v>       0.00166667 </v>
   <v>       0.00166667 </v>
   <v>       0.00166667 </v>
   <v>       0.00166667 </v>
   <v>       0.00166667 </v>
   <v>       0.00166667 </v>
   <v>       0.00166667 </v>
   <v>       0.00166667 </v>
   <v>       0.00166667 </v>
   <v>       0.00166667 </v>
   <v>       0.00166667 </v>
   <v>       0.00166667 </v>
   <v>       0.00166667 </v>
   <v>       0.00166667 </v>
   <v>       0.00166667 </v>
   <v>       0.00166667 </v>
   <v>       0.00166667 </v>
   <v>       0.00166667 </v>
   <v>       0.00166667 </v>
   <v>       0.00166667 </v>
   <v>       0.00166667 </v>
   <v>       0.00166667 </v>
   <v>       0.00166667 </v>
   <v>       0.00166667 </v>
   <v>       0.00166667 </v>
   <v>       0.00166667 </v>
   <v>       0.00166667 </v>
   <v>       0.00166667 </v>
   <v>       0.00166667 </v>
   <v>       0.00166667 </v>
   <v>       0.00166667 </v>
   <v>       0.00166667 </v>
   <v>       0.00166667 </v>
   <v>       0.00166667 </v>
   <v>       0.00166667 </v>
   <v>       0.00166667 </v>
   <v>       0.00166667 </v>
   <v>       0.00166667 </v>
   <v>       0.00166667 </v>
   <v>       0.00166667 </v>
   <v>       0.00166667 </v>
   <v>       0.00166667 </v>
   <v>       0.00166667 </v>
   <v>       0.00166667 </v>
   <v>       0.00166667 </v>
   <v>       0.00166667 </v>
   <v>       0.00166667 </v>
   <v>       0.00166667 </v>
   <v>       0.00166667 </v>
   <v>       0.00166667 </v>
   <v>       0.00166667 </v>
   <v>       0.00166667 </v>
   <v>       0.00166667 </v>
   <v>       0.00166667 </v>
   <v>       0.00166667 </v>
   <v>       0.00166667 </v>
   <v>       0.00166667 </v>
   <v>       0.00166667 </v>
   <v>       0.00166667 </v>
   <v>       0.00166667 </v>
   <v>       0.00166667 </v>
   <v>       0.00166667 </v>
   <v>       0.00166667 </v>
   <v>       0.00166667 </v>
   <v>       0.00166667 </v>
   <v>       0.00166667 </v>
   <v>       0.00166667 </v>
   <v>       0.00166667 </v>
   <v>       0.00166667 </v>
   <v>       0.00166667 </v>
   <v>       0.00166667 </v>
   <v>       0.00166667 </v>
   <v>       0.00166667 </v>
   <v>       0.00166667 </v>
   <v>       0.00166667 </v>
   <v>       0.00166667 </v>
   <v>       0.00166667 </v>
   <v>       0.00166667 </v>
   <v>       0.00166667 </v>
   <v>       0.00166667 </v>
   <v>       0.00166667 </v>
   <v>       0.00166667 </v>
   <v>       0.00166667 </v>
   <v>       0.00166667 </v>
   <v>       0.00166667 </v>
   <v>       0.00166667 </v>
   <v>       0.00166667 </v>
   <v>       0.00166667 </v>
   <v>       0.00166667 </v>
   <v>       0.00166667 </v>
   <v>       0.00166667 </v>
   <v>       0.00166667 </v>
   <v>       0.00166667 </v>
   <v>       0.00166667 </v>
   <v>       0.00166667 </v>
   <v>       0.00166667 </v>
   <v>       0.00166667 </v>
   <v>       0.00166667 </v>
   <v>       0.00166667 </v>
   <v>       0.00166667 </v>
   <v>       0.00166667 </v>
   <v>       0.00166667 </v>
   <v>       0.00166667 </v>
   <v>       0.00166667 </v>
   <v>       0.00166667 </v>
   <v>       0.00166667 </v>
   <v>       0.00166667 </v>
   <v>       0.00166667 </v>
   <v>       0.00166667 </v>
   <v>       0.00166667 </v>
   <v>       0.00166667 </v>
   <v>       0.00166667 </v>
   <v>       0.00166667 </v>
   <v>       0.00166667 </v>
   <v>       0.00166667 </v>
   <v>       0.00166667 </v>
   <v>       0.00166667 </v>
   <v>       0.00166667 </v>
   <v>       0.00166667 </v>
   <v>       0.00166667 </v>
   <v>       0.00166667 </v>
   <v>       0.00166667 </v>
   <v>       0.00166667 </v>
   <v>       0.00166667 </v>
   <v>       0.00166667 </v>
   <v>       0.00166667 </v>
   <v>       0.00166667 </v>
   <v>       0.00166667 </v>
   <v>       0.00166667 </v>
   <v>       0.00166667 </v>
   <v>       0.00166667 </v>
   <v>       0.00166667 </v>
   <v>       0.00166667 </v>
   <v>       0.00166667 </v>
   <v>       0.00166667 </v>
   <v>       0.00166667 </v>
   <v>       0.00166667 </v>
   <v>       0.00166667 </v>
   <v>       0.00166667 </v>
   <v>       0.00166667 </v>
   <v>       0.00166667 </v>
   <v>       0.00166667 </v>
   <v>       0.00166667 </v>
   <v>       0.00166667 </v>
   <v>       0.00166667 </v>
   <v>       0.00166667 </v>
   <v>       0.00166667 </v>
   <v>       0.00166667 </v>
   <v>       0.00166667 </v>
   <v>       0.00166667 </v>
   <v>       0.00166667 </v>
   <v>       0.00166667 </v>
   <v>       0.00166667 </v>
   <v>       0.00166667 </v>
   <v>       0.00166667 </v>
   <v>       0.00166667 </v>
   <v>       0.00166667 </v>
   <v>       0.00166667 </v>
   <v>       0.00166667 </v>
   <v>       0.00166667 </v>
   <v>       0.00166667 </v>
   <v>       0.00166667 </v>
   <v>       0.00166667 </v>
   <v>       0.00166667 </v>
   <v>       0.00166667 </v>
   <v>       0.00166667 </v>
   <v>       0.00166667 </v>
   <v>       0.00166667 </v>
   <v>       0.00166667 </v>
   <v>       0.00166667 </v>
   <v>       0.00166667 </v>
   <v>       0.00166667 </v>
   <v>       0.00166667 </v>
   <v>       0.00166667 </v>
   <v>       0.00166667 </v>
   <v>       0.00166667 </v>
   <v>       0.00166667 </v>
   <v>       0.00166667 </v>
   <v>       0.00166667 </v>
   <v>       0.00166667 </v>
   <v>       0.00166667 </v>
   <v>       0.00166667 </v>
   <v>       0.00166667 </v>
   <v>       0.00166667 </v>
   <v>       0.00166667 </v>
   <v>       0.00166667 </v>
   <v>       0.00166667 </v>
   <v>       0.00166667 </v>
   <v>       0.00166667 </v>
   <v>       0.00166667 </v>
   <v>       0.00166667 </v>
   <v>       0.00166667 </v>
   <v>       0.00166667 </v>
   <v>       0.00166667 </v>
   <v>       0.00166667 </v>
   <v>       0.00166667 </v>
   <v>       0.00166667 </v>
   <v>       0.00166667 </v>
   <v>       0.00166667 </v>
   <v>       0.00166667 </v>
   <v>       0.00166667 </v>
   <v>       0.00166667 </v>
   <v>       0.00166667 </v>
   <v>       0.00166667 </v>
   <v>       0.00166667 </v>
   <v>       0.00166667 </v>
   <v>       0.00166667 </v>
   <v>       0.00166667 </v>
   <v>       0.00166667 </v>
   <v>       0.00166667 </v>
   <v>       0.00166667 </v>
   <v>       0.00166667 </v>
   <v>       0.00166667 </v>
   <v>       0.00166667 </v>
   <v>       0.00166667 </v>
   <v>       0.00166667 </v>
   <v>       0.00166667 </v>
   <v>       0.00166667 </v>
   <v>       0.00166667 </v>
   <v>       0.00166667 </v>
   <v>       0.00166667 </v>
   <v>       0.00166667 </v>
   <v>       0.00166667 </v>
   <v>       0.00166667 </v>
   <v>       0.00166667 </v>
   <v>       0.00166667 </v>
   <v>       0.00166667 </v>
   <v>       0.00166667 </v>
   <v>       0.00166667 </v>
   <v>       0.00166667 </v>
   <v>       0.00166667 </v>
   <v>       0.00166667 </v>
   <v>       0.00166667 </v>
   <v>       0.00166667 </v>
   <v>       0.00166667 </v>
   <v>       0.00166667 </v>
   <v>       0.00166667 </v>
   <v>       0.00166667 </v>
   <v>       0.00166667 </v>
   <v>       0.00166667 </v>
   <v>       0.00166667 </v>
   <v>       0.00166667 </v>
   <v>       0.00166667 </v>
   <v>       0.00166667 </v>
   <v>       0.00166667 </v>
   <v>       0.00166667 </v>
   <v>       0.00166667 </v>
   <v>       0.00166667 </v>
   <v>       0.00166667 </v>
   <v>       0.00166667 </v>
   <v>       0.00166667 </v>
   <v>       0.00166667 </v>
   <v>       0.00166667 </v>
   <v>       0.00166667 </v>
   <v>       0.00166667 </v>
   <v>       0.00166667 </v>
   <v>       0.00166667 </v>
   <v>       0.00166667 </v>
   <v>       0.00166667 </v>
   <v>       0.00166667 </v>
   <v>       0.00166667 </v>
   <v>       0.00166667 </v>
   <v>       0.00166667 </v>
   <v>       0.00166667 </v>
   <v>       0.00166667 </v>
   <v>       0.00166667 </v>
   <v>       0.00166667 </v>
   <v>       0.00166667 </v>
   <v>       0.00166667 </v>
   <v>       0.00166667 </v>
   <v>       0.00166667 </v>
   <v>       0.00166667 </v>
   <v>       0.00166667 </v>
   <v>       0.00166667 </v>
   <v>       0.00166667 </v>
   <v>       0.00166667 </v>
   <v>       0.00166667 </v>
   <v>       0.00166667 </v>
   <v>       0.00166667 </v>
   <v>       0.00166667 </v>
   <v>       0.00166667 </v>
   <v>       0.00166667 </v>
   <v>       0.00166667 </v>
   <v>       0.00166667 </v>
   <v>       0.00166667 </v>
   <v>       0.00166667 </v>
   <v>       0.00166667 </v>
   <v>       0.00166667 </v>
   <v>       0.00166667 </v>
   <v>       0.00166667 </v>
   <v>       0.00166667 </v>
   <v>       0.00166667 </v>
   <v>       0.00166667 </v>
   <v>       0.00166667 </v>
   <v>       0.00166667 </v>
   <v>       0.00166667 </v>
   <v>       0.00166667 </v>
   <v>       0.00166667 </v>
   <v>       0.00166667 </v>
   <v>       0.00166667 </v>
   <v>       0.00166667 </v>
   <v>       0.00166667 </v>
   <v>       0.00166667 </v>
   <v>       0.00166667 </v>
   <v>       0.00166667 </v>
   <v>       0.00166667 </v>
   <v>       0.00166667 </v>
   <v>       0.00166667 </v>
   <v>       0.00166667 </v>
   <v>       0.00166667 </v>
   <v>       0.00166667 </v>
   <v>       0.00166667 </v>
   <v>       0.00166667 </v>
   <v>       0.00166667 </v>
   <v>       0.00166667 </v>
   <v>       0.00166667 </v>
   <v>       0.00166667 </v>
   <v>       0.00166667 </v>
   <v>       0.00166667 </v>
   <v>       0.00166667 </v>
   <v>       0.00166667 </v>
   <v>       0.00166667 </v>
   <v>       0.00166667 </v>
   <v>       0.00166667 </v>
   <v>       0.00166667 </v>
   <v>       0.00166667 </v>
  </varray>
 </kpoints>
 <parameters>
  <separator name="general" >
   <i type="string" name="SYSTEM">Diamond</i>
   <i type="logical" name="LCOMPAT"> F  </i>
  </separator>
  <separator name="electronic" >
   <i type="string" name="PREC">normal</i>
   <i name="ENMAX">    500.00000000</i>
   <i name="ENAUG">    644.87300000</i>
   <i name="EDIFF">      0.00000100</i>
   <i type="int" name="IALGO">    38</i>
   <i type="int" name="IWAVPR">    11</i>
   <i type="int" name="NBANDS">    16</i>
   <i name="NELECT">      8.00000000</i>
   <i type="int" name="TURBO">     0</i>
   <i type="int" name="IRESTART">     0</i>
   <i type="int" name="NREBOOT">     0</i>
   <i type="int" name="NMIN">     0</i>
   <i name="EREF">      0.00000000</i>
   <separator name="electronic smearing" >
    <i type="int" name="ISMEAR">     0</i>
    <i name="SIGMA">      0.10000000</i>
    <i name="KSPACING">      0.50000000</i>
    <i type="logical" name="KGAMMA"> T  </i>
   </separator>
   <separator name="electronic projectors" >
    <i type="logical" name="LREAL"> F  </i>
    <v name="ROPT">      0.00000000</v>
    <i type="int" name="LMAXPAW">  -100</i>
    <i type="int" name="LMAXMIX">     2</i>
    <i type="logical" name="NLSPLINE"> F  </i>
   </separator>
   <separator name="electronic startup" >
    <i type="int" name="ISTART">     0</i>
    <i type="int" name="ICHARG">     2</i>
    <i type="int" name="INIWAV">     1</i>
   </separator>
   <separator name="electronic spin" >
    <i type="int" name="ISPIN">     1</i>
    <i type="logical" name="LNONCOLLINEAR"> F  </i>
    <v name="MAGMOM">      1.00000000      1.00000000</v>
    <i name="NUPDOWN">     -1.00000000</i>
    <i type="logical" name="LSORBIT"> F  </i>
    <v name="SAXIS">      0.00000000      0.00000000      1.00000000</v>
    <i type="logical" name="LSPIRAL"> F  </i>
    <v name="QSPIRAL">      0.00000000      0.00000000      0.00000000</v>
    <i type="logical" name="LZEROZ"> F  </i>
   </separator>
   <separator name="electronic exchange-correlation" >
    <i type="logical" name="LASPH"> F  </i>
    <i type="logical" name="LMETAGGA"> F  </i>
   </separator>
   <separator name="electronic convergence" >
    <i type="int" name="NELM">   100</i>
    <i type="int" name="NELMDL">    -5</i>
    <i type="int" name="NELMIN">     4</i>
    <i name="ENINI">    500.00000000</i>
    <separator name="electronic convergence detail" >
     <i type="logical" name="LDIAG"> T  </i>
     <i type="logical" name="LSUBROT"> F  </i>
     <i name="WEIMIN">      0.00100000</i>
     <i name="EBREAK">      0.00000002</i>
     <i name="DEPER">      0.30000000</i>
     <i type="int" name="NRMM">     4</i>
     <i name="TIME">      0.40000000</i>
    </separator>
   </separator>
   <separator name="electronic mixer" >
    <i name="AMIX">      0.40000000</i>
    <i name="BMIX">      1.00000000</i>
    <i name="AMIN">      0.10000000</i>
    <i name="AMIX_MAG">      1.60000000</i>
    <i name="BMIX_MAG">      1.00000000</i>
    <separator name="electronic mixer details" >
     <i type="int" name="IMIX">     4</i>
     <i type="logical" name="MIXFIRST"> F  </i>
     <i type="int" name="MAXMIX">   -45</i>
     <i name="WC">    100.00000000</i>
     <i type="int" name="INIMIX">     1</i>
     <i type="int" name="MIXPRE">     1</i>
     <i type="int" name="MREMOVE">     5</i>
    </separator>
   </separator>
   <separator name="electronic dipolcorrection" >
    <i type="logical" name="LDIPOL"> F  </i>
    <i type="logical" name="LMONO"> F  </i>
    <i type="int" name="IDIPOL">     0</i>
    <i name="EPSILON">      1.00000000</i>
    <v name="DIPOL">   -100.00000000   -100.00000000   -100.00000000</v>
    <i name="EFIELD">      0.00000000</i>
   </separator>
  </separator>
  <separator name="grids" >
   <i type="int" name="NGX">    14</i>
   <i type="int" name="NGY">    14</i>
   <i type="int" name="NGZ">    14</i>
   <i type="int" name="NGXF">    28</i>
   <i type="int" name="NGYF">    28</i>
   <i type="int" name="NGZF">    28</i>
   <i type="logical" name="ADDGRID"> F  </i>
  </separator>
  <separator name="ionic" >
   <i type="int" name="NSW">    20</i>
   <i type="int" name="IBRION">     2</i>
   <i type="int" name="ISIF">     3</i>
   <i name="PSTRESS">      0.00000000</i>
   <i name="EDIFFG">     -0.00001000</i>
   <i type="int" name="NFREE">     1</i>
   <i name="POTIM">      0.50000000</i>
   <i name="SMASS">     -3.00000000</i>
   <i name="SCALEE">      1.00000000</i>
  </separator>
  <separator name="ionic md" >
   <i name="TEBEG">      0.00010000</i>
   <i name="TEEND">      0.00010000</i>
   <i type="int" name="NBLOCK">     1</i>
   <i type="int" name="KBLOCK">    20</i>
   <i type="int" name="NPACO">   256</i>
   <i name="APACO">     16.00000000</i>
  </separator>
  <separator name="symmetry" >
   <i type="int" name="ISYM">     2</i>
   <i name="SYMPREC">      0.00001000</i>
  </separator>
  <separator name="dos" >
   <i type="logical" name="LORBIT"> F  </i>
   <v name="RWIGS">     -1.00000000</v>
   <i type="int" name="NEDOS">   301</i>
   <i name="EMIN">     10.00000000</i>
   <i name="EMAX">    -10.00000000</i>
   <i name="EFERMI">      0.00000000</i>
  </separator>
  <separator name="writing" >
   <i type="int" name="NWRITE">     2</i>
   <i type="logical" name="LWAVE"> T  </i>
   <i type="logical" name="LCHARG"> T  </i>
   <i type="logical" name="LPARD"> F  </i>
   <i type="logical" name="LVTOT"> F  </i>
   <i type="logical" name="LVHAR"> F  </i>
   <i type="logical" name="LELF"> F  </i>
   <i type="logical" name="LOPTICS"> F  </i>
   <v name="STM">      0.00000000      0.00000000      0.00000000      0.00000000      0.00000000      0.00000000      0.00000000</v>
  </separator>
  <separator name="performance" >
   <i type="int" name="NPAR">    16</i>
   <i type="int" name="NSIM">     4</i>
   <i type="int" name="NBLK">    -1</i>
   <i type="logical" name="LPLANE"> T  </i>
   <i type="logical" name="LSCALAPACK"> T  </i>
   <i type="logical" name="LSCAAWARE"> F  </i>
   <i type="logical" name="LSCALU"> F  </i>
   <i type="logical" name="LASYNC"> F  </i>
   <i type="logical" name="LORBITALREAL"> F  </i>
  </separator>
  <separator name="miscellaneous" >
   <i type="int" name="IDIOT">     3</i>
   <i type="logical" name="LMUSIC"> F  </i>
   <v name="POMASS">     12.01100000</v>
   <v name="DARWINR">      0.00000000</v>
   <v name="DARWINV">      1.00000000</v>
   <i type="logical" name="LCORR"> T  </i>
  </separator>
  <i type="logical" name="GGA_COMPAT"> T  </i>
  <i type="logical" name="LBERRY"> F  </i>
  <i type="int" name="ICORELEVEL">     0</i>
  <i type="logical" name="LDAU"> F  </i>
  <i type="int" name="I_CONSTRAINED_M">     0</i>
  <separator name="electronic exchange-correlation" >
   <i type="string" name="GGA">--</i>
   <i type="int" name="VOSKOWN">     0</i>
   <i type="logical" name="LHFCALC"> F  </i>
   <i type="string" name="PRECFOCK"></i>
   <i type="logical" name="LSYMGRAD"> F  </i>
   <i type="logical" name="LHFONE"> F  </i>
   <i type="logical" name="LRHFCALC"> F  </i>
   <i type="logical" name="LTHOMAS"> F  </i>
   <i type="logical" name="LMODELHF"> F  </i>
   <i name="ENCUT4O">     -1.00000000</i>
   <i type="int" name="EXXOEP">     0</i>
   <i type="int" name="FOURORBIT">     0</i>
   <i name="AEXX">      0.00000000</i>
   <i name="HFALPHA">      0.00000000</i>
   <i name="MCALPHA">      0.00000000</i>
   <i name="ALDAX">      1.00000000</i>
   <i name="AGGAX">      1.00000000</i>
   <i name="ALDAC">      1.00000000</i>
   <i name="AGGAC">      1.00000000</i>
   <i type="int" name="NKREDX">     1</i>
   <i type="int" name="NKREDY">     1</i>
   <i type="int" name="NKREDZ">     1</i>
   <i type="logical" name="SHIFTRED"> F  </i>
   <i type="logical" name="ODDONLY"> F  </i>
   <i type="logical" name="EVENONLY"> F  </i>
   <i type="int" name="LMAXFOCK">     0</i>
   <i type="int" name="NMAXFOCKAE">     0</i>
   <i type="logical" name="LFOCKAEDFT"> F  </i>
   <i name="HFSCREEN">      0.00000000</i>
   <i name="HFSCREENC">      0.00000000</i>
   <i type="int" name="NBANDSGWLOW">     0</i>
  </separator>
  <separator name="vdW DFT" >
   <i type="logical" name="LUSE_VDW"> F  </i>
   <i name="Zab_VDW">     -0.84910000</i>
   <i name="PARAM1">      0.12340000</i>
   <i name="PARAM2">      1.00000000</i>
   <i name="PARAM3">      0.00000000</i>
  </separator>
  <separator name="model GW" >
   <i type="int" name="MODEL_GW">     0</i>
   <i name="MODEL_EPS0">      3.40385139</i>
   <i name="MODEL_ALPHA">      1.00000000</i>
  </separator>
  <separator name="linear response parameters" >
   <i type="logical" name="LEPSILON"> F  </i>
   <i type="logical" name="LRPA"> F  </i>
   <i type="logical" name="LNABLA"> F  </i>
   <i type="logical" name="LVEL"> F  </i>
   <i type="int" name="KINTER">     0</i>
   <i name="CSHIFT">      0.10000000</i>
   <i name="OMEGAMAX">     -1.00000000</i>
   <i name="DEG_THRESHOLD">      0.00200000</i>
  </separator>
  <separator name="orbital magnetization" >
   <i type="logical" name="NUCIND"> F  </i>
   <v name="MAGPOS">      0.00000000      0.00000000      0.00000000</v>
   <i type="logical" name="LNICSALL"> T  </i>
   <i type="logical" name="ORBITALMAG"> F  </i>
   <i type="logical" name="LMAGBLOCH"> F  </i>
   <i type="logical" name="LCHIMAG"> F  </i>
   <i type="logical" name="LGAUGE"> T  </i>
   <i type="int" name="MAGATOM">     0</i>
   <v name="MAGDIPOL">      0.00000000      0.00000000      0.00000000</v>
   <v name="AVECCONST">      0.00000000      0.00000000      0.00000000</v>
  </separator>
  <separator name="response functions" >
   <i type="logical" name="LADDER"> F  </i>
   <i type="logical" name="LFXC"> F  </i>
   <i type="logical" name="LHARTREE"> T  </i>
   <i type="int" name="IBSE">     0</i>
   <v type="int" name="KPOINT">    -1     0     0     0</v>
   <i type="logical" name="LTCTE"> F  </i>
   <i type="logical" name="LTETE"> F  </i>
   <i type="logical" name="LTRIPLET"> F  </i>
   <i type="logical" name="LFXCEPS"> F  </i>
   <i type="logical" name="LFXHEG"> F  </i>
   <i type="int" name="NATURALO">     0</i>
   <i type="logical" name="L2ORDER"> F  </i>
   <i type="logical" name="LUSEW"> F  </i>
   <i name="ENCUTGW">     -2.00000000</i>
   <i name="ENCUTGWSOFT">     -2.00000000</i>
   <i name="ENCUTLF">     -1.00000000</i>
   <i type="int" name="LMAXMP2">    -1</i>
   <i name="SCISSOR">      0.00000000</i>
   <i type="int" name="NOMEGA">     0</i>
   <i type="int" name="NOMEGAR">     0</i>
   <i type="int" name="NBANDSGW">    -1</i>
   <i type="int" name="NBANDSO">    -1</i>
   <i type="int" name="NBANDSV">    -1</i>
   <i type="int" name="NELM">   100</i>
   <i type="int" name="NELMHF">     1</i>
   <i type="int" name="DIM">     3</i>
   <i type="int" name="ANTIRES">     0</i>
   <i name="OMEGAMAX">    -30.00000000</i>
   <i name="OMEGAMIN">    -30.00000000</i>
   <i name="OMEGATL">   -200.00000000</i>
   <i type="int" name="OMEGAGRID">     0</i>
   <i name="CSHIFT">     -0.10000000</i>
   <i type="logical" name="SELFENERGY"> F  </i>
   <i type="logical" name="LSPECTRAL"> F  </i>
   <i type="logical" name="LSPECTRALGW"> F  </i>
   <i type="logical" name="LSINGLES"> F  </i>
   <i type="logical" name="LFERMIGW"> F  </i>
   <i type="logical" name="ODDONLYGW"> F  </i>
   <i type="logical" name="EVENONLYGW"> F  </i>
   <i type="int" name="NKREDLFX">     1</i>
   <i type="int" name="NKREDLFY">     1</i>
   <i type="int" name="NKREDLFZ">     1</i>
   <i type="int" name="MAXMEM">  1800</i>
   <i type="int" name="TELESCOPE">     0</i>
   <i type="int" name="TAUPAR">     1</i>
   <i type="int" name="OMEGAPAR">    -1</i>
   <i name="LAMBDA">      1.00000000</i>
  </separator>
  <separator name="External order field" >
   <i name="OFIELD_KAPPA">      0.00000000</i>
   <v name="OFIELD_K">      0.00000000      0.00000000      0.00000000</v>
   <i name="OFIELD_Q6_NEAR">      0.00000000</i>
   <i name="OFIELD_Q6_FAR">      0.00000000</i>
   <i name="OFIELD_A">      0.00000000</i>
  </separator>
 </parameters>
 <atominfo>
  <atoms>       2 </atoms>
  <types>       1 </types>
  <array name="atoms" >
   <dimension dim="1">ion</dimension>
   <field type="string">element</field>
   <field type="int">atomtype</field>
   <set>
    <rc><c>C </c><c>   1</c></rc>
    <rc><c>C </c><c>   1</c></rc>
   </set>
  </array>
  <array name="atomtypes" >
   <dimension dim="1">type</dimension>
   <field type="int">atomspertype</field>
   <field type="string">element</field>
   <field>mass</field>
   <field>valence</field>
   <field type="string">pseudopotential</field>
   <set>
    <rc><c>   2</c><c>C </c><c>     12.01100000</c><c>      4.00000000</c><c> PAW_PBE C 08Apr2002                    </c></rc>
   </set>
  </array>
 </atominfo>
 <structure name="initialpos" >
  <crystal>
   <varray name="basis" >
    <v>       1.78350000       1.78350000       0.00000000 </v>
    <v>       0.00000000       1.78350000       1.78350000 </v>
    <v>       1.78350000       0.00000000       1.78350000 </v>
   </varray>
   <i name="volume">     11.34617132 </i>
   <varray name="rec_basis" >
    <v>       0.28034763       0.28034763      -0.28034763 </v>
    <v>      -0.28034763       0.28034763       0.28034763 </v>
    <v>       0.28034763      -0.28034763       0.28034763 </v>
   </varray>
  </crystal>
  <varray name="positions" >
   <v>       0.00000000       0.00000000       0.00000000 </v>
   <v>       0.25000000       0.25000000       0.25000000 </v>
  </varray>
 </structure>
 <calculation>
  <scstep>
   <time name="dav">    1.80    1.80</time>
   <time name="total">    1.80    1.83</time>
   <energy>
    <i name="alphaZ">     28.72516613 </i>
    <i name="ewald">   -347.93942819 </i>
    <i name="hartreedc">    -17.61817783 </i>
    <i name="XCdc">     28.59487881 </i>
    <i name="pawpsdc">     75.66288619 </i>
    <i name="pawaedc">    -77.96384553 </i>
    <i name="eentropy">     -0.00000032 </i>
    <i name="bandstr">      5.21399064 </i>
    <i name="atom">    294.29684335 </i>
    <i name="e_fr_energy">    -11.02768676 </i>
    <i name="e_wo_entrp">    -11.02768644 </i>
    <i name="e_0_energy">    -11.02768660 </i>
   </energy>
  </scstep>
  <scstep>
   <time name="dav">    2.49    2.50</time>
   <time name="total">    2.50    2.53</time>
   <energy>
    <i name="e_fr_energy">    -16.43867258 </i>
    <i name="e_wo_entrp">    -16.43867258 </i>
    <i name="e_0_energy">    -16.43867258 </i>
   </energy>
  </scstep>
  <scstep>
   <time name="dav">    1.82    1.82</time>
   <time name="total">    1.82    1.83</time>
   <energy>
    <i name="e_fr_energy">    -16.44819322 </i>
    <i name="e_wo_entrp">    -16.44819322 </i>
    <i name="e_0_energy">    -16.44819322 </i>
   </energy>
  </scstep>
  <scstep>
   <time name="dav">    3.65    3.67</time>
   <time name="total">    3.66    3.68</time>
   <energy>
    <i name="e_fr_energy">    -16.44819616 </i>
    <i name="e_wo_entrp">    -16.44819616 </i>
    <i name="e_0_energy">    -16.44819616 </i>
   </energy>
  </scstep>
  <scstep>
   <time name="dav">    1.82    1.83</time>
   <time name="total">    1.85    1.86</time>
   <energy>
    <i name="e_fr_energy">    -16.44819616 </i>
    <i name="e_wo_entrp">    -16.44819616 </i>
    <i name="e_0_energy">    -16.44819616 </i>
   </energy>
  </scstep>
  <scstep>
   <time name="dav">    1.83    1.83</time>
   <time name="total">    1.86    1.87</time>
   <energy>
    <i name="e_fr_energy">    -15.83287677 </i>
    <i name="e_wo_entrp">    -15.83287677 </i>
    <i name="e_0_energy">    -15.83287677 </i>
   </energy>
  </scstep>
  <scstep>
   <time name="dav">    2.01    2.01</time>
   <time name="total">    2.04    2.05</time>
   <energy>
    <i name="e_fr_energy">    -15.62389983 </i>
    <i name="e_wo_entrp">    -15.62389983 </i>
    <i name="e_0_energy">    -15.62389983 </i>
   </energy>
  </scstep>
  <scstep>
   <time name="dav">    1.90    1.90</time>
   <time name="total">    1.93    1.94</time>
   <energy>
    <i name="e_fr_energy">    -15.62573231 </i>
    <i name="e_wo_entrp">    -15.62573231 </i>
    <i name="e_0_energy">    -15.62573231 </i>
   </energy>
  </scstep>
  <scstep>
   <time name="dav">    2.63    2.63</time>
   <time name="total">    2.67    2.67</time>
   <energy>
    <i name="e_fr_energy">    -15.62578011 </i>
    <i name="e_wo_entrp">    -15.62578011 </i>
    <i name="e_0_energy">    -15.62578011 </i>
   </energy>
  </scstep>
  <scstep>
   <time name="dav">    2.26    2.26</time>
   <time name="total">    2.29    2.30</time>
   <energy>
    <i name="e_fr_energy">    -15.62579496 </i>
    <i name="e_wo_entrp">    -15.62579496 </i>
    <i name="e_0_energy">    -15.62579496 </i>
   </energy>
  </scstep>
  <scstep>
   <time name="dav">    2.32    2.32</time>
   <time name="total">    2.32    2.33</time>
   <energy>
    <i name="alphaZ">     28.72516613 </i>
    <i name="ewald">   -347.93942819 </i>
    <i name="hartreedc">    -27.64451033 </i>
    <i name="XCdc">     29.54155559 </i>
    <i name="pawpsdc">    133.61901575 </i>
    <i name="pawaedc">   -136.23026133 </i>
    <i name="eentropy">     -0.00000000 </i>
    <i name="bandstr">     10.00582410 </i>
    <i name="atom">    294.29684335 </i>
    <i name="e_fr_energy">    -15.62579493 </i>
    <i name="e_wo_entrp">    -15.62579493 </i>
    <i name="e_0_energy">    -15.62579493 </i>
   </energy>
  </scstep>
  <structure>
   <crystal>
    <varray name="basis" >
     <v>       1.78350000       1.78350000       0.00000000 </v>
     <v>       0.00000000       1.78350000       1.78350000 </v>
     <v>       1.78350000       0.00000000       1.78350000 </v>
    </varray>
    <i name="volume">     11.34617132 </i>
    <varray name="rec_basis" >
     <v>       0.28034763       0.28034763      -0.28034763 </v>
     <v>      -0.28034763       0.28034763       0.28034763 </v>
     <v>       0.28034763      -0.28034763       0.28034763 </v>
    </varray>
   </crystal>
   <varray name="positions" >
    <v>       0.00000000       0.00000000       0.00000000 </v>
    <v>       0.25000000       0.25000000       0.25000000 </v>
   </varray>
  </structure>
  <varray name="forces" >
   <v>       0.00000000       0.00000000       0.00000000 </v>
   <v>      -0.00000000      -0.00000000      -0.00000000 </v>
  </varray>
  <varray name="stress" >
   <v>     286.34401907       0.00000000       0.00000000 </v>
   <v>      -0.00000000     286.34401907       0.00000000 </v>
   <v>       0.00000000      -0.00000000     286.34401907 </v>
  </varray>
  <energy>
   <i name="e_fr_energy">    -15.62579493 </i>
   <i name="e_wo_entrp">    -15.62579493 </i>
   <i name="e_0_energy">     -0.00000000 </i>
  </energy>
  <time name="totalsc">   25.48   25.72</time>
 </calculation>
 <calculation>
  <scstep>
   <time name="dav">    1.53    1.53</time>
   <time name="total">    1.56    1.58</time>
   <energy>
    <i name="alphaZ">     24.89107297 </i>
    <i name="ewald">   -331.71415307 </i>
    <i name="hartreedc">    -26.35546996 </i>
    <i name="XCdc">     28.23502099 </i>
    <i name="pawpsdc">    133.62429815 </i>
    <i name="pawaedc">   -136.23550575 </i>
    <i name="eentropy">     -0.00000000 </i>
    <i name="bandstr">     -2.43974777 </i>
    <i name="atom">    294.29684335 </i>
    <i name="e_fr_energy">    -15.69764109 </i>
    <i name="e_wo_entrp">    -15.69764109 </i>
    <i name="e_0_energy">    -15.69764109 </i>
   </energy>
  </scstep>
  <scstep>
   <time name="dav">    1.74    1.74</time>
   <time name="total">    1.77    1.78</time>
   <energy>
    <i name="e_fr_energy">    -15.63146304 </i>
    <i name="e_wo_entrp">    -15.63146304 </i>
    <i name="e_0_energy">    -15.63146304 </i>
   </energy>
  </scstep>
  <scstep>
   <time name="dav">    1.86    1.86</time>
   <time name="total">    1.89    1.91</time>
   <energy>
    <i name="e_fr_energy">    -15.60420423 </i>
    <i name="e_wo_entrp">    -15.60420423 </i>
    <i name="e_0_energy">    -15.60420423 </i>
   </energy>
  </scstep>
  <scstep>
   <time name="dav">    1.79    1.79</time>
   <time name="total">    1.82    1.83</time>
   <energy>
    <i name="e_fr_energy">    -15.60405597 </i>
    <i name="e_wo_entrp">    -15.60405597 </i>
    <i name="e_0_energy">    -15.60405597 </i>
   </energy>
  </scstep>
  <scstep>
   <time name="dav">    2.72    2.72</time>
   <time name="total">    2.75    2.76</time>
   <energy>
    <i name="e_fr_energy">    -15.60404708 </i>
    <i name="e_wo_entrp">    -15.60404708 </i>
    <i name="e_0_energy">    -15.60404708 </i>
   </energy>
  </scstep>
  <scstep>
   <time name="dav">    2.19    2.19</time>
   <time name="total">    2.19    2.20</time>
   <energy>
    <i name="alphaZ">     24.89107297 </i>
    <i name="ewald">   -331.71415307 </i>
    <i name="hartreedc">    -29.75614489 </i>
    <i name="XCdc">     28.55276564 </i>
    <i name="pawpsdc">    117.09170016 </i>
    <i name="pawaedc">   -119.61301588 </i>
    <i name="eentropy">     -0.00000000 </i>
    <i name="bandstr">      0.64688480 </i>
    <i name="atom">    294.29684335 </i>
    <i name="e_fr_energy">    -15.60404692 </i>
    <i name="e_wo_entrp">    -15.60404692 </i>
    <i name="e_0_energy">    -15.60404692 </i>
   </energy>
  </scstep>
  <structure>
   <crystal>
    <varray name="basis" >
     <v>       1.87073709       1.87073709       0.00000000 </v>
     <v>       0.00000000       1.87073709       1.87073709 </v>
     <v>       1.87073709      -0.00000000       1.87073709 </v>
    </varray>
    <i name="volume">     13.09387732 </i>
    <varray name="rec_basis" >
     <v>       0.26727433       0.26727433      -0.26727433 </v>
     <v>      -0.26727433       0.26727433       0.26727433 </v>
     <v>       0.26727433      -0.26727433       0.26727433 </v>
    </varray>
   </crystal>
   <varray name="positions" >
    <v>       0.00000000       0.00000000       0.00000000 </v>
    <v>       0.25000000       0.25000000       0.25000000 </v>
   </varray>
  </structure>
  <varray name="forces" >
   <v>       0.00000000       0.00000000       0.00000000 </v>
   <v>      -0.00000000      -0.00000000      -0.00000000 </v>
  </varray>
  <varray name="stress" >
   <v>    -266.27698710       0.00000000      -0.00000000 </v>
   <v>      -0.00000000    -266.27698710       0.00000000 </v>
   <v>      -0.00000000       0.00000000    -266.27698710 </v>
  </varray>
  <energy>
   <i name="e_fr_energy">    -15.60404692 </i>
   <i name="e_wo_entrp">    -15.60404692 </i>
   <i name="e_0_energy">     -0.00000000 </i>
  </energy>
  <time name="totalsc">   12.73   12.82</time>
 </calculation>
 <calculation>
  <scstep>
   <time name="dav">    1.53    1.53</time>
   <time name="total">    1.56    1.97</time>
   <energy>
    <i name="alphaZ">     26.88516546 </i>
    <i name="ewald">   -340.34577751 </i>
    <i name="hartreedc">    -30.53004793 </i>
    <i name="XCdc">     29.25550675 </i>
    <i name="pawpsdc">    117.16300782 </i>
    <i name="pawaedc">   -119.68513011 </i>
    <i name="eentropy">     -0.00000000 </i>
    <i name="bandstr">      7.24132358 </i>
    <i name="atom">    294.29684335 </i>
[...]
       <r>   40.1692    0.0000 </r>
       <r>   45.9801    0.0000 </r>
       <r>   45.9801    0.0000 </r>
       <r>   55.3049    0.0000 </r>
       <r>   55.3050    0.0000 </r>
      </set>
      <set comment="kpoint 595">
       <r>   -3.3363    1.0000 </r>
       <r>   -3.3363    1.0000 </r>
       <r>    3.0606    1.0000 </r>
       <r>    3.0607    1.0000 </r>
       <r>   13.5697    0.0000 </r>
       <r>   13.5697    0.0000 </r>
       <r>   24.8793    0.0000 </r>
       <r>   24.8796    0.0000 </r>
       <r>   31.0548    0.0000 </r>
       <r>   31.0549    0.0000 </r>
       <r>   40.1796    0.0000 </r>
       <r>   40.1798    0.0000 </r>
       <r>   45.9580    0.0000 </r>
       <r>   45.9580    0.0000 </r>
       <r>   55.3749    0.0000 </r>
       <r>   55.3750    0.0000 </r>
      </set>
      <set comment="kpoint 596">
       <r>   -3.3375    1.0000 </r>
       <r>   -3.3375    1.0000 </r>
       <r>    3.0652    1.0000 </r>
       <r>    3.0652    1.0000 </r>
       <r>   13.5612    0.0000 </r>
       <r>   13.5612    0.0000 </r>
       <r>   24.8832    0.0000 </r>
       <r>   24.8835    0.0000 </r>
       <r>   31.0597    0.0000 </r>
       <r>   31.0597    0.0000 </r>
       <r>   40.1895    0.0000 </r>
       <r>   40.1896    0.0000 </r>
       <r>   45.9401    0.0000 </r>
       <r>   45.9401    0.0000 </r>
       <r>   55.4415    0.0000 </r>
       <r>   55.4416    0.0000 </r>
      </set>
      <set comment="kpoint 597">
       <r>   -3.3385    1.0000 </r>
       <r>   -3.3385    1.0000 </r>
       <r>    3.0687    1.0000 </r>
       <r>    3.0688    1.0000 </r>
       <r>   13.5546    0.0000 </r>
       <r>   13.5546    0.0000 </r>
       <r>   24.8863    0.0000 </r>
       <r>   24.8866    0.0000 </r>
       <r>   31.0635    0.0000 </r>
       <r>   31.0635    0.0000 </r>
       <r>   40.1971    0.0000 </r>
       <r>   40.1973    0.0000 </r>
       <r>   45.9261    0.0000 </r>
       <r>   45.9261    0.0000 </r>
       <r>   55.5018    0.0000 </r>
       <r>   55.5019    0.0000 </r>
      </set>
      <set comment="kpoint 598">
       <r>   -3.3392    1.0000 </r>
       <r>   -3.3392    1.0000 </r>
       <r>    3.0713    1.0000 </r>
       <r>    3.0713    1.0000 </r>
       <r>   13.5499    0.0000 </r>
       <r>   13.5499    0.0000 </r>
       <r>   24.8884    0.0000 </r>
       <r>   24.8887    0.0000 </r>
       <r>   31.0661    0.0000 </r>
       <r>   31.0662    0.0000 </r>
       <r>   40.2027    0.0000 </r>
       <r>   40.2028    0.0000 </r>
       <r>   45.9161    0.0000 </r>
       <r>   45.9161    0.0000 </r>
       <r>   55.5524    0.0000 </r>
       <r>   55.5525    0.0000 </r>
      </set>
      <set comment="kpoint 599">
       <r>   -3.3396    1.0000 </r>
       <r>   -3.3396    1.0000 </r>
       <r>    3.0728    1.0000 </r>
       <r>    3.0728    1.0000 </r>
       <r>   13.5471    0.0000 </r>
       <r>   13.5471    0.0000 </r>
       <r>   24.8897    0.0000 </r>
       <r>   24.8900    0.0000 </r>
       <r>   31.0678    0.0000 </r>
       <r>   31.0678    0.0000 </r>
       <r>   40.2060    0.0000 </r>
       <r>   40.2061    0.0000 </r>
       <r>   45.9101    0.0000 </r>
       <r>   45.9101    0.0000 </r>
       <r>   55.5877    0.0000 </r>
       <r>   55.5878    0.0000 </r>
      </set>
      <set comment="kpoint 600">
       <r>   -3.3397    1.0000 </r>
       <r>   -3.3397    1.0000 </r>
       <r>    3.0733    1.0000 </r>
       <r>    3.0733    1.0000 </r>
       <r>   13.5461    0.0000 </r>
       <r>   13.5461    0.0000 </r>
       <r>   24.8902    0.0000 </r>
       <r>   24.8905    0.0000 </r>
       <r>   31.0683    0.0000 </r>
       <r>   31.0683    0.0000 </r>
       <r>   40.2071    0.0000 </r>
       <r>   40.2072    0.0000 </r>
       <r>   45.9081    0.0000 </r>
       <r>   45.9081    0.0000 </r>
       <r>   55.6007    0.0000 </r>
       <r>   55.6008    0.0000 </r>
      </set>
     </set>
    </set>
   </array>
  </eigenvalues>
  <separator name="orbital magnetization" >
   <v name="MAGDIPOLOUT">      0.00000000      0.00000000      0.00000000</v>
  </separator>
  <dos>
   <i name="efermi">      9.51673726 </i>
   <total>
    <array>
     <dimension dim="1">gridpoints</dimension>
     <dimension dim="2">spin</dimension>
     <field>energy</field>
     <field>total</field>
     <field>integrated</field>
     <set>
      <set comment="spin 1">
       <r>   -15.2588     0.0000     0.0000 </r>
       <r>   -14.9956     0.0000     0.0000 </r>
       <r>   -14.7324     0.0000     0.0000 </r>
       <r>   -14.4691     0.0000     0.0000 </r>
       <r>   -14.2059     0.0000     0.0000 </r>
       <r>   -13.9427     0.0000     0.0000 </r>
       <r>   -13.6795     0.0000     0.0000 </r>
       <r>   -13.4163     0.0000     0.0000 </r>
       <r>   -13.1530     0.0000     0.0000 </r>
       <r>   -12.8898     0.0000     0.0000 </r>
       <r>   -12.6266     0.0000     0.0000 </r>
       <r>   -12.3634     0.0000     0.0000 </r>
       <r>   -12.1002     0.0000     0.0000 </r>
       <r>   -11.8370     0.0018     0.0005 </r>
       <r>   -11.5737     0.3886     0.1027 </r>
       <r>   -11.3105     0.4075     0.2100 </r>
       <r>   -11.0473     0.2508     0.2760 </r>
       <r>   -10.7841     0.2006     0.3288 </r>
       <r>   -10.5209     0.1726     0.3742 </r>
       <r>   -10.2576     0.1541     0.4148 </r>
       <r>    -9.9944     0.1406     0.4518 </r>
       <r>    -9.7312     0.1304     0.4861 </r>
       <r>    -9.4680     0.1222     0.5183 </r>
       <r>    -9.2048     0.1156     0.5487 </r>
       <r>    -8.9415     0.1101     0.5777 </r>
       <r>    -8.6783     0.1055     0.6055 </r>
       <r>    -8.4151     0.1016     0.6322 </r>
       <r>    -8.1519     0.0983     0.6581 </r>
       <r>    -7.8887     0.0955     0.6833 </r>
       <r>    -7.6254     0.0933     0.7078 </r>
       <r>    -7.3622     0.0917     0.7320 </r>
       <r>    -7.0990     0.0908     0.7559 </r>
       <r>    -6.8358     0.0912     0.7799 </r>
       <r>    -6.5726     0.0943     0.8047 </r>
       <r>    -6.3093     0.1284     0.8385 </r>
       <r>    -6.0461     0.3550     0.9319 </r>
       <r>    -5.7829     0.2064     0.9862 </r>
       <r>    -5.5197     0.1613     1.0287 </r>
       <r>    -5.2565     0.1421     1.0661 </r>
       <r>    -4.9932     0.1309     1.1006 </r>
       <r>    -4.7300     0.1238     1.1331 </r>
       <r>    -4.4668     0.1194     1.1646 </r>
       <r>    -4.2036     0.1173     1.1954 </r>
       <r>    -3.9404     0.1180     1.2265 </r>
       <r>    -3.6771     0.2849     1.3015 </r>
       <r>    -3.4139     0.7237     1.4920 </r>
       <r>    -3.1507     2.6672     2.1940 </r>
       <r>    -2.8875     1.1860     2.5062 </r>
       <r>    -2.6243     1.2036     2.8230 </r>
       <r>    -2.3610     0.5443     2.9663 </r>
       <r>    -2.0978     0.3265     3.0522 </r>
       <r>    -1.8346     0.2924     3.1292 </r>
       <r>    -1.5714     0.0900     3.1529 </r>
       <r>    -1.3082     0.0841     3.1750 </r>
       <r>    -1.0449     0.0814     3.1965 </r>
       <r>    -0.7817     0.0787     3.2172 </r>
       <r>    -0.5185     0.0767     3.2374 </r>
       <r>    -0.2553     0.0751     3.2571 </r>
       <r>     0.0079     0.0825     3.2788 </r>
       <r>     0.2711     0.2653     3.3487 </r>
       <r>     0.5344     0.2727     3.4205 </r>
       <r>     0.7976     0.3114     3.5024 </r>
       <r>     1.0608     0.4112     3.6107 </r>
       <r>     1.3240     0.7499     3.8081 </r>
       <r>     1.5872     0.6358     3.9754 </r>
       <r>     1.8505     0.5331     4.1157 </r>
       <r>     2.1137     0.5040     4.2484 </r>
       <r>     2.3769     0.5028     4.3807 </r>
       <r>     2.6401     0.5298     4.5202 </r>
       <r>     2.9033     0.6355     4.6875 </r>
       <r>     3.1666     1.4605     5.0719 </r>
       <r>     3.4298     0.8837     5.3045 </r>
       <r>     3.6930     0.5960     5.4614 </r>
       <r>     3.9562     0.5082     5.5951 </r>
       <r>     4.2194     0.3697     5.6924 </r>
       <r>     4.4827     0.3338     5.7803 </r>
       <r>     4.7459     0.3241     5.8656 </r>
       <r>     5.0091     0.3196     5.9497 </r>
       <r>     5.2723     0.3192     6.0338 </r>
       <r>     5.5355     0.3237     6.1190 </r>
       <r>     5.7988     0.3358     6.2074 </r>
       <r>     6.0620     0.3637     6.3031 </r>
       <r>     6.3252     0.5332     6.4435 </r>
       <r>     6.5884     0.8809     6.6753 </r>
       <r>     6.8516     0.5042     6.8080 </r>
       <r>     7.1149     0.4329     6.9220 </r>
       <r>     7.3781     0.4065     7.0290 </r>
       <r>     7.6413     0.3973     7.1336 </r>
       <r>     7.9045     0.4003     7.2389 </r>
       <r>     8.1677     0.4165     7.3486 </r>
       <r>     8.4310     0.4529     7.4678 </r>
       <r>     8.6942     0.5348     7.6085 </r>
       <r>     8.9574     0.8599     7.8349 </r>
       <r>     9.2206     0.6262     7.9997 </r>
       <r>     9.4838     0.0011     8.0000 </r>
       <r>     9.7471     0.0000     8.0000 </r>
       <r>    10.0103     0.0000     8.0000 </r>
       <r>    10.2735     0.0000     8.0000 </r>
       <r>    10.5367     0.0000     8.0000 </r>
       <r>    10.7999     0.0000     8.0000 </r>
       <r>    11.0632     0.0000     8.0000 </r>
       <r>    11.3264     0.0000     8.0000 </r>
       <r>    11.5896     0.0000     8.0000 </r>
       <r>    11.8528     0.0000     8.0000 </r>
       <r>    12.1160     0.0000     8.0000 </r>
       <r>    12.3793     0.0000     8.0000 </r>
       <r>    12.6425     0.0000     8.0000 </r>
       <r>    12.9057     0.0727     8.0191 </r>
       <r>    13.1689     0.3883     8.1213 </r>
       <r>    13.4321     0.2450     8.1858 </r>
       <r>    13.6953     1.1524     8.4891 </r>
       <r>    13.9586     0.8671     8.7174 </r>
       <r>    14.2218     0.6690     8.8935 </r>
       <r>    14.4850     1.2249     9.2159 </r>
       <r>    14.7482     0.9762     9.4728 </r>
       <r>    15.0114     0.7054     9.6585 </r>
       <r>    15.2747     0.6284     9.8239 </r>
       <r>    15.5379     0.5916     9.9796 </r>
       <r>    15.8011     0.5762    10.1313 </r>
       <r>    16.0643     0.5790    10.2837 </r>
       <r>    16.3275     0.6030    10.4424 </r>
       <r>    16.5908     0.6658    10.6177 </r>
       <r>    16.8540     0.8999    10.8546 </r>
       <r>    17.1172     2.0967    11.4064 </r>
       <r>    17.3804     1.3415    11.7596 </r>
       <r>    17.6436     0.5338    11.9000 </r>
       <r>    17.9069     0.4742    12.0249 </r>
       <r>    18.1701     0.4431    12.1415 </r>
       <r>    18.4333     0.4250    12.2534 </r>
       <r>    18.6965     0.4161    12.3629 </r>
       <r>    18.9597     0.4181    12.4730 </r>
       <r>    19.2230     0.4711    12.5970 </r>
       <r>    19.4862     0.4475    12.7148 </r>
       <r>    19.7494     0.1779    12.7616 </r>
       <r>    20.0126     0.1666    12.8054 </r>
       <r>    20.2758     0.1688    12.8499 </r>
       <r>    20.5391     0.3440    12.9404 </r>
       <r>    20.8023     0.5034    13.0729 </r>
       <r>    21.0655     0.9590    13.3253 </r>
       <r>    21.3287     0.7060    13.5112 </r>
       <r>    21.5919     0.5580    13.6580 </r>
       <r>    21.8552     0.8492    13.8815 </r>
       <r>    22.1184     0.5801    14.0342 </r>
       <r>    22.3816     0.4529    14.1534 </r>
       <r>    22.6448     0.3922    14.2567 </r>
       <r>    22.9080     0.4263    14.3689 </r>
       <r>    23.1713     0.4429    14.4854 </r>
       <r>    23.4345     0.4756    14.6106 </r>
       <r>    23.6977     0.5577    14.7574 </r>
       <r>    23.9609     0.8199    14.9732 </r>
       <r>    24.2241     0.9817    15.2316 </r>
       <r>    24.4874     0.6637    15.4063 </r>
       <r>    24.7506     0.9657    15.6605 </r>
       <r>    25.0138     1.2669    15.9940 </r>
       <r>    25.2770     0.0827    16.0158 </r>
       <r>    25.5402     0.0690    16.0340 </r>
       <r>    25.8034     0.0484    16.0467 </r>
       <r>    26.0667     0.0428    16.0580 </r>
       <r>    26.3299     0.0756    16.0779 </r>
       <r>    26.5931     0.2082    16.1327 </r>
       <r>    26.8563     0.1465    16.1712 </r>
       <r>    27.1195     0.1639    16.2143 </r>
       <r>    27.3828     0.2583    16.2823 </r>
       <r>    27.6460     0.5687    16.4320 </r>
       <r>    27.9092     0.5480    16.5763 </r>
       <r>    28.1724     0.4519    16.6952 </r>
       <r>    28.4356     0.4472    16.8129 </r>
       <r>    28.6989     0.6572    16.9859 </r>
       <r>    28.9621     0.7077    17.1722 </r>
       <r>    29.2253     0.6903    17.3539 </r>
       <r>    29.4885     1.0031    17.6179 </r>
       <r>    29.7517     0.8392    17.8388 </r>
       <r>    30.0150     0.7989    18.0491 </r>
       <r>    30.2782     0.5581    18.1960 </r>
       <r>    30.5414     0.5500    18.3408 </r>
       <r>    30.8046     0.8805    18.5726 </r>
       <r>    31.0678     1.4048    18.9423 </r>
       <r>    31.3311     1.3017    19.2850 </r>
       <r>    31.5943     0.9694    19.5401 </r>
       <r>    31.8575     0.6749    19.7178 </r>
       <r>    32.1207     1.1021    20.0079 </r>
       <r>    32.3839     0.5186    20.1444 </r>
       <r>    32.6472     0.4400    20.2602 </r>
       <r>    32.9104     0.5088    20.3942 </r>
       <r>    33.1736     0.3014    20.4735 </r>
       <r>    33.4368     0.4003    20.5789 </r>
       <r>    33.7000     0.3784    20.6785 </r>
       <r>    33.9633     0.8011    20.8894 </r>
       <r>    34.2265     0.5959    21.0462 </r>
       <r>    34.4897     0.3632    21.1418 </r>
       <r>    34.7529     0.4509    21.2605 </r>
       <r>    35.0161     0.3708    21.3581 </r>
       <r>    35.2794     0.2652    21.4279 </r>
       <r>    35.5426     0.2674    21.4983 </r>
       <r>    35.8058     0.7106    21.6854 </r>
       <r>    36.0690     0.5046    21.8182 </r>
       <r>    36.3322     0.4048    21.9248 </r>
       <r>    36.5955     0.3698    22.0221 </r>
       <r>    36.8587     0.3479    22.1137 </r>
       <r>    37.1219     0.3349    22.2018 </r>
       <r>    37.3851     0.3238    22.2871 </r>
       <r>    37.6483     0.3136    22.3696 </r>
       <r>    37.9115     0.3095    22.4511 </r>
       <r>    38.1748     0.3212    22.5356 </r>
       <r>    38.4380     0.9269    22.7796 </r>
       <r>    38.7012     0.7257    22.9706 </r>
       <r>    38.9644     0.5836    23.1242 </r>
       <r>    39.2276     0.5460    23.2679 </r>
       <r>    39.4909     0.5865    23.4223 </r>
       <r>    39.7541     0.5160    23.5581 </r>
       <r>    40.0173     0.4865    23.6862 </r>
       <r>    40.2805     0.8929    23.9212 </r>
       <r>    40.5437     0.5503    24.0661 </r>
       <r>    40.8070     0.4022    24.1719 </r>
       <r>    41.0702     0.5952    24.3286 </r>
       <r>    41.3334     0.4889    24.4573 </r>
       <r>    41.5966     0.4224    24.5685 </r>
       <r>    41.8598     0.6617    24.7427 </r>
       <r>    42.1231     0.8170    24.9577 </r>
       <r>    42.3863     0.5093    25.0918 </r>
       <r>    42.6495     0.4312    25.2053 </r>
       <r>    42.9127     0.3354    25.2935 </r>
       <r>    43.1759     0.2840    25.3683 </r>
       <r>    43.4392     0.2632    25.4376 </r>
       <r>    43.7024     0.2485    25.5030 </r>
       <r>    43.9656     0.2367    25.5653 </r>
       <r>    44.2288     0.2267    25.6250 </r>
       <r>    44.4920     0.2232    25.6837 </r>
       <r>    44.7553     0.2174    25.7409 </r>
       <r>    45.0185     0.2098    25.7962 </r>
       <r>    45.2817     0.2080    25.8509 </r>
       <r>    45.5449     0.2078    25.9056 </r>
       <r>    45.8081     0.2304    25.9662 </r>
       <r>    46.0714     1.0494    26.2424 </r>
       <r>    46.3346     0.7712    26.4454 </r>
       <r>    46.5978     0.6014    26.6037 </r>
       <r>    46.8610     0.5265    26.7423 </r>
       <r>    47.1242     0.5646    26.8909 </r>
       <r>    47.3875     0.5535    27.0366 </r>
       <r>    47.6507     0.5670    27.1859 </r>
       <r>    47.9139     0.5182    27.3223 </r>
       <r>    48.1771     0.5256    27.4606 </r>
       <r>    48.4403     0.4144    27.5697 </r>
       <r>    48.7036     0.3860    27.6713 </r>
       <r>    48.9668     0.4374    27.7865 </r>
       <r>    49.2300     0.6047    27.9456 </r>
       <r>    49.4932     0.5767    28.0974 </r>
       <r>    49.7564     0.7083    28.2839 </r>
       <r>    50.0196     0.6335    28.4506 </r>
       <r>    50.2829     0.6162    28.6128 </r>
       <r>    50.5461     0.8534    28.8375 </r>
       <r>    50.8093     0.9845    29.0966 </r>
       <r>    51.0725     0.4549    29.2163 </r>
       <r>    51.3357     0.4067    29.3234 </r>
       <r>    51.5990     0.3856    29.4249 </r>
       <r>    51.8622     0.7178    29.6138 </r>
       <r>    52.1254     0.7656    29.8153 </r>
       <r>    52.3886     0.7302    30.0076 </r>
       <r>    52.6518     0.9671    30.2621 </r>
       <r>    52.9151     1.0830    30.5472 </r>
       <r>    53.1783     0.8926    30.7822 </r>
       <r>    53.4415     0.4604    30.9033 </r>
       <r>    53.7047     0.4557    31.0233 </r>
       <r>    53.9679     0.5305    31.1629 </r>
       <r>    54.2312     0.4972    31.2938 </r>
       <r>    54.4944     0.2762    31.3665 </r>
       <r>    54.7576     0.2719    31.4381 </r>
       <r>    55.0208     0.2743    31.5103 </r>
       <r>    55.2840     0.2604    31.5788 </r>
       <r>    55.5473     0.3377    31.6677 </r>
       <r>    55.8105     0.2938    31.7451 </r>
       <r>    56.0737     0.0473    31.7575 </r>
       <r>    56.3369     0.0469    31.7698 </r>
       <r>    56.6001     0.0476    31.7824 </r>
       <r>    56.8634     0.0486    31.7952 </r>
       <r>    57.1266     0.0499    31.8083 </r>
       <r>    57.3898     0.0499    31.8214 </r>
       <r>    57.6530     0.0497    31.8345 </r>
       <r>    57.9162     0.0494    31.8475 </r>
       <r>    58.1795     0.0493    31.8605 </r>
       <r>    58.4427     0.0497    31.8736 </r>
       <r>    58.7059     0.0506    31.8869 </r>
       <r>    58.9691     0.0521    31.9006 </r>
       <r>    59.2323     0.0544    31.9149 </r>
       <r>    59.4956     0.0583    31.9303 </r>
       <r>    59.7588     0.0686    31.9483 </r>
       <r>    60.0220     0.0982    31.9742 </r>
       <r>    60.2852     0.0976    31.9999 </r>
       <r>    60.5484     0.0005    32.0000 </r>
       <r>    60.8117     0.0000    32.0000 </r>
       <r>    61.0749     0.0000    32.0000 </r>
       <r>    61.3381     0.0000    32.0000 </r>
       <r>    61.6013     0.0000    32.0000 </r>
       <r>    61.8645     0.0000    32.0000 </r>
       <r>    62.1278     0.0000    32.0000 </r>
       <r>    62.3910     0.0000    32.0000 </r>
       <r>    62.6542     0.0000    32.0000 </r>
       <r>    62.9174     0.0000    32.0000 </r>
       <r>    63.1806     0.0000    32.0000 </r>
       <r>    63.4438     0.0000    32.0000 </r>
       <r>    63.7071     0.0000    32.0000 </r>
      </set>
     </set>
    </array>
   </total>
  </dos>
 </calculation>
 <structure name="finalpos" >
  <crystal>
   <varray name="basis" >
    <v>       1.82265025       1.82265025       0.00000000 </v>
    <v>       0.00000000       1.82265025       1.82265025 </v>
    <v>       1.82265025      -0.00000000       1.82265025 </v>
   </varray>
   <i name="volume">     12.10988483 </i>
   <varray name="rec_basis" >
    <v>       0.27432581       0.27432581      -0.27432581 </v>
    <v>      -0.27432581       0.27432581       0.27432581 </v>
    <v>       0.27432581      -0.27432581       0.27432581 </v>
   </varray>
  </crystal>
  <varray name="positions" >
   <v>       0.00000000       0.00000000       0.00000000 </v>
   <v>       0.25000000       0.25000000       0.25000000 </v>
  </varray>
 </structure>
</modeling>
