Real silicon (diamond-like)             
   5.50000000000000     
     0.000000    0.497144    0.497144
     0.497144    0.000000    0.497144
     0.497144    0.497144    0.000000
   Si
     2
Direct
  0.875000  0.875000  0.875000
  0.125000  0.125000  0.125000
 
   48   48   48
 0.22963015092E+02 0.22915747466E+02 0.22771275052E+02 0.22521415997E+02 0.22146417376E+02
 0.21590617882E+02 0.20809943211E+02 0.19809422015E+02 0.18657750965E+02 0.17485689141E+02
 0.16464169661E+02 0.15765192732E+02 0.15516473035E+02 0.15765192828E+02 0.16464169668E+02
 0.17485688999E+02 0.18657750843E+02 0.19809422051E+02 0.20809943321E+02 0.21590617936E+02
 0.22146417403E+02 0.22521416071E+02 0.22771275097E+02 0.22915747355E+02 0.22963014883E+02
 0.22915747355E+02 0.22771275097E+02 0.22521416071E+02 0.22146417403E+02 0.21590617936E+02
 0.20809943321E+02 0.19809422051E+02 0.18657750843E+02 0.17485688999E+02 0.16464169668E+02
 0.15765192828E+02 0.15516473035E+02 0.15765192732E+02 0.16464169661E+02 0.17485689141E+02
 0.18657750965E+02 0.19809422015E+02 0.20809943211E+02 0.21590617882E+02 0.22146417376E+02
 0.22521415997E+02 0.22771275052E+02 0.22915747466E+02 0.22915747466E+02 0.22995641083E+02
 0.22960246629E+02 0.22776418003E+02 0.22362687590E+02 0.21648179132E+02 0.20613031835E+02
 0.19310406687E+02 0.17873731275E+02 0.16501451718E+02 0.15417951536E+02 0.14819067369E+02
 0.14819067126E+02 0.15417951047E+02 0.16501451456E+02 0.17873731462E+02 0.19310407101E+02
 0.20613032082E+02 0.21648179071E+02 0.22362687407E+02 0.22776417921E+02 0.22960246652E+02
 0.22995641076E+02 0.22915747390E+02 0.22736322577E+02 0.22467623412E+02 0.22114477886E+02
 0.21676121641E+02 0.21145676351E+02 0.20494609880E+02 0.19700666105E+02 0.18784647309E+02
 0.17818393530E+02 0.16916798953E+02 0.16213669857E+02 0.15827370511E+02 0.15827370094E+02
 0.16213669028E+02 0.16916798494E+02 0.17818393743E+02 0.18784647829E+02 0.19700666440E+02
 0.20494609903E+02 0.21145676226E+02 0.21676121512E+02 0.22114477791E+02 0.22467623380E+02
 0.22736322632E+02 0.22771275052E+02 0.22960246629E+02 0.22991560836E+02 0.22761944230E+02
 0.22171145247E+02 0.21167554517E+02 0.19776823157E+02 0.18118925317E+02 0.16403259133E+02
 0.14895455800E+02 0.13859442380E+02 0.13490146422E+02 0.13859442354E+02 0.14895455879E+02
 0.16403259304E+02 0.18118925380E+02 0.19776823028E+02 0.21167554376E+02 0.22171145272E+02
 0.22761944341E+02 0.22991560857E+02 0.22960246576E+02 0.22771275074E+02 0.22467623479E+02
 0.22072400621E+02 0.21603176872E+02 0.21071711218E+02 0.20483805675E+02 0.19841284962E+02
 0.19139755053E+02 0.18374070493E+02 0.17571536222E+02 0.16797025509E+02 0.16141680434E+02
 0.15700268253E+02 0.15544271449E+02 0.15700268409E+02 0.16141680555E+02 0.16797025491E+02
 0.17571536163E+02 0.18374070492E+02 0.19139755061E+02 0.19841284923E+02 0.20483805665E+02
 0.21071711309E+02 0.21603176972E+02 0.22072400598E+02 0.22467623380E+02 0.22521415997E+02
 0.22776418003E+02 0.22761944230E+02 0.22349005841E+02 0.21451045502E+02 0.20057306403E+02
 0.18258791433E+02 0.16255464741E+02 0.14334162229E+02 0.12814586190E+02 0.11974079102E+02
 0.11974079012E+02 0.12814586065E+02 0.14334162233E+02 0.16255464744E+02 0.18258791253E+02
 0.20057306202E+02 0.21451045592E+02 0.22349006183E+02 0.22761944455E+02 0.22776417952E+02
 0.22521415904E+02 0.22114477832E+02 0.21603176971E+02 0.21017522331E+02 0.20381645564E+02
 0.19712952642E+02 0.19022059405E+02 0.18315482431E+02 0.17601337572E+02 0.16890677755E+02
 0.16210300900E+02 0.15612017135E+02 0.15161161011E+02 0.14917787142E+02 0.14917787590E+02
 0.15161161929E+02 0.15612017758E+02 0.16210300938E+02 0.16890677459E+02 0.17601337215E+02
 0.18315482083E+02 0.19022059171E+02 0.19712952702E+02 0.20381645871E+02 0.21017522569E+02
 0.21603176972E+02 0.22114477791E+02 0.22146417376E+02 0.22362687590E+02 0.22171145247E+02
 0.21451045502E+02 0.20150999578E+02 0.18321432012E+02 0.16133128826E+02 0.13869116230E+02
 0.11881491450E+02 0.10517057548E+02 0.10030938019E+02 0.10517057561E+02 0.11881491392E+02
 0.13869116117E+02 0.16133128796E+02 0.18321432109E+02 0.20150999669E+02 0.21451045488E+02
 0.22171145223E+02 0.22362687670E+02 0.22146417472E+02 0.21676121460E+02 0.21071711144E+02
 0.20381645793E+02 0.19642011072E+02 0.18882013310E+02 0.18122565392E+02 0.17376566110E+02
 0.16652358669E+02 0.15959961417E+02 0.15317508821E+02 0.14752864802E+02 0.14303394137E+02
 0.14011245063E+02 0.13909663380E+02 0.14011245001E+02 0.14303394139E+02 0.14752864886E+02
 0.15317508851E+02 0.15959961338E+02 0.16652358602E+02 0.17376566140E+02 0.18122565420E+02
 0.18882013236E+02 0.19642010999E+02 0.20381645871E+02 0.21071711309E+02 0.21676121512E+02
 0.21590617882E+02 0.21648179132E+02 0.21167554517E+02 0.20057306403E+02 0.18321432012E+02
 0.16086497273E+02 0.13607235647E+02 0.11238498652E+02 0.93703780310E+01 0.83388710939E+01
 0.83388715735E+01 0.93703788796E+01 0.11238498964E+02 0.13607235423E+02 0.16086497140E+02
 0.18321432096E+02 0.20057306272E+02 0.21167554121E+02 0.21648178991E+02 0.21590618176E+02
 0.21145676445E+02 0.20483805490E+02 0.19712952585E+02 0.18882013622E+02 0.18031615269E+02
 0.17193653377E+02 0.16389714390E+02 0.15632159327E+02 0.14928492794E+02 0.14287627068E+02
 0.13725184488E+02 0.13265006240E+02 0.12935667553E+02 0.12763211669E+02 0.12763211343E+02
 0.12935666938E+02 0.13265005862E+02 0.13725184314E+02 0.14287626858E+02 0.14928492771E+02
 0.15632159839E+02 0.16389715104E+02 0.17193653543E+02 0.18031614800E+02 0.18882013236E+02
 0.19712952702E+02 0.20483805665E+02 0.21145676226E+02 0.20809943211E+02 0.20613031835E+02
 0.19776823157E+02 0.18258791433E+02 0.16133128826E+02 0.13607235647E+02 0.11009419020E+02
 0.87393668254E+01 0.71859963610E+01 0.66334475410E+01 0.71859962784E+01 0.87393668116E+01
 0.11009419112E+02 0.13607235691E+02 0.16133128721E+02 0.18258791288E+02 0.19776823116E+02
 0.20613031875E+02 0.20809943242E+02 0.20494609940E+02 0.19841285029E+02 0.19022059279E+02
 0.18122565394E+02 0.17193653392E+02 0.16277980916E+02 0.15406999417E+02 0.14599946938E+02
 0.13866215667E+02 0.13210642272E+02 0.12639582199E+02 0.12164998482E+02 0.11804605993E+02
 0.11577980572E+02 0.11500496213E+02 0.11577980655E+02 0.11804606018E+02 0.12164998391E+02
 0.12639582102E+02 0.13210642260E+02 0.13866215684E+02 0.14599946918E+02 0.15406999425E+02
 0.16277981035E+02 0.17193653543E+02 0.18122565420E+02 0.19022059171E+02 0.19841284923E+02
 0.20494609903E+02 0.19809422015E+02 0.19310406687E+02 0.18118925317E+02 0.16255464741E+02
 0.13869116230E+02 0.11238498652E+02 0.87393668254E+01 0.67770134814E+01 0.56964365504E+01
 0.56964357241E+01 0.67770120023E+01 0.87393662548E+01 0.11238499051E+02 0.13869116544E+02
 0.16255464647E+02 0.18118925433E+02 0.19310407154E+02 0.19809422164E+02 0.19700666065E+02
 0.19139754871E+02 0.18315482418E+02 0.17376566256E+02 0.16389714453E+02 0.15406998785E+02
 0.14469718637E+02 0.13605527820E+02 0.12828796256E+02 0.12144493285E+02 0.11554126483E+02
 0.11061249860E+02 0.10674251945E+02 0.10405435351E+02 0.10267159623E+02 0.10267159913E+02
 0.10405435777E+02 0.10674251995E+02 0.11061249890E+02 0.11554126979E+02 0.12144493730E+02
 0.12828795785E+02 0.13605526755E+02 0.14469718241E+02 0.15406999425E+02 0.16389715104E+02
 0.17376566140E+02 0.18315482083E+02 0.19139755061E+02 0.19700666440E+02 0.18657750965E+02
 0.17873731275E+02 0.16403259133E+02 0.14334162229E+02 0.11881491450E+02 0.93703780310E+01
 0.71859963610E+01 0.56964365504E+01 0.51675732486E+01 0.56964364904E+01 0.71859962380E+01
 0.93703779222E+01 0.11881491471E+02 0.14334162370E+02 0.16403259234E+02 0.17873731229E+02
 0.18657750856E+02 0.18784647791E+02 0.18374070520E+02 0.17601337215E+02 0.16652358574E+02
 0.15632159876E+02 0.14599947019E+02 0.13605526797E+02 0.12685126818E+02 0.11859789603E+02
 0.11137602387E+02 0.10518890602E+02 0.10002238822E+02 0.95889830177E+01 0.92846487479E+01
 0.90972646276E+01 0.90338743083E+01 0.90972645349E+01 0.92846486814E+01 0.95889830292E+01
 0.10002238841E+02 0.10518890589E+02 0.11137602413E+02 0.11859789703E+02 0.12685126895E+02
 0.13605526755E+02 0.14599946918E+02 0.15632159839E+02 0.16652358602E+02 0.17601337215E+02
 0.18374070492E+02 0.18784647829E+02 0.17485689141E+02 0.16501451718E+02 0.14895455800E+02
 0.12814586190E+02 0.10517057548E+02 0.83388710939E+01 0.66334475410E+01 0.56964357241E+01
 0.56964364904E+01 0.66334488734E+01 0.83388715504E+01 0.10517057209E+02 0.12814586078E+02
 0.14895455990E+02 0.16501451421E+02 0.17485688388E+02 0.17818393518E+02 0.17571536718E+02
 0.16890677844E+02 0.15959961068E+02 0.14928492682E+02 0.13866216366E+02 0.12828796304E+02
 0.11859788993E+02 0.10987171331E+02 0.10223790979E+02 0.95714089913E+01 0.90265628066E+01
 0.85859621961E+01 0.82496093532E+01 0.80209889416E+01 0.79049733401E+01 0.79049729946E+01
 0.80209885090E+01 0.82496095081E+01 0.85859623623E+01 0.90265621684E+01 0.95714081637E+01
 0.10223791271E+02 0.10987172604E+02 0.11859789703E+02 0.12828795785E+02 0.13866215684E+02
 0.14928492771E+02 0.15959961338E+02 0.16890677459E+02 0.17571536163E+02 0.17818393743E+02
 0.16464169661E+02 0.15417951536E+02 0.13859442380E+02 0.11974079102E+02 0.10030938019E+02
 0.83388715735E+01 0.71859962784E+01 0.67770120023E+01 0.71859962380E+01 0.83388715504E+01
 0.10030938031E+02 0.11974079101E+02 0.13859442343E+02 0.15417951504E+02 0.16464169663E+02
 0.16916798500E+02 0.16797025482E+02 0.16210300958E+02 0.15317508925E+02 0.14287626915E+02
 0.13210642218E+02 0.12144493631E+02 0.11137602384E+02 0.10223791347E+02 0.94209603827E+01
 0.87337405598E+01 0.81587253448E+01 0.76901304537E+01 0.73239545607E+01 0.70596177989E+01
 0.68992024115E+01 0.68453460046E+01 0.68992024513E+01 0.70596178177E+01 0.73239545475E+01
 0.76901304654E+01 0.81587253924E+01 0.87337405655E+01 0.94209603046E+01 0.10223791271E+02
 0.11137602413E+02 0.12144493730E+02 0.13210642260E+02 0.14287626858E+02 0.15317508851E+02
 0.16210300938E+02 0.16797025491E+02 0.16916798494E+02 0.15765192732E+02 0.14819067369E+02
 0.13490146422E+02 0.11974079012E+02 0.10517057561E+02 0.93703788796E+01 0.87393668116E+01
 0.87393662548E+01 0.93703779222E+01 0.10517057209E+02 0.11974079101E+02 0.13490146251E+02
 0.14819067149E+02 0.15765193189E+02 0.16213669892E+02 0.16141680739E+02 0.15612017092E+02
 0.14752864406E+02 0.13725184542E+02 0.12639582257E+02 0.11554126513E+02 0.10518890335E+02
 0.95714089593E+01 0.87337416266E+01 0.80136618549E+01 0.74089657704E+01 0.69129294899E+01
 0.65189614050E+01 0.62232180792E+01 0.60249535580E+01 0.59252508567E+01 0.59252512332E+01
 0.60249540047E+01 0.62232178017E+01 0.65189610211E+01 0.69129300314E+01 0.74089667794E+01
 0.80136619076E+01 0.87337405655E+01 0.95714081637E+01 0.10518890589E+02 0.11554126979E+02
 0.12639582102E+02 0.13725184314E+02 0.14752864886E+02 0.15612017758E+02 0.16141680555E+02
 0.16213669028E+02 0.15516473035E+02 0.14819067126E+02 0.13859442354E+02 0.12814586065E+02
 0.11881491392E+02 0.11238498964E+02 0.11009419112E+02 0.11238499051E+02 0.11881491471E+02
 0.12814586078E+02 0.13859442343E+02 0.14819067149E+02 0.15516473070E+02 0.15827370078E+02
 0.15700268330E+02 0.15161161840E+02 0.14303394091E+02 0.13265005871E+02 0.12164998450E+02
 0.11061249974E+02 0.10002238897E+02 0.90265621492E+01 0.81587253158E+01 0.74089667218E+01
 0.67765183238E+01 0.62545649773E+01 0.58349794697E+01 0.55114860209E+01 0.52808019722E+01
 0.51421242706E+01 0.50958052467E+01 0.51421242510E+01 0.52808019602E+01 0.55114860177E+01
 0.58349794465E+01 0.62545649358E+01 0.67765183160E+01 0.74089667794E+01 0.81587253924E+01
 0.90265621684E+01 0.10002238841E+02 0.11061249890E+02 0.12164998391E+02 0.13265005862E+02
 0.14303394139E+02 0.15161161929E+02 0.15700268409E+02 0.15827370094E+02 0.15765192828E+02
 0.15417951047E+02 0.14895455879E+02 0.14334162233E+02 0.13869116117E+02 0.13607235423E+02
 0.13607235691E+02 0.13869116544E+02 0.14334162370E+02 0.14895455990E+02 0.15417951504E+02
 0.15765193189E+02 0.15827370078E+02 0.15544270521E+02 0.14917787226E+02 0.14011245520E+02
 0.12935667534E+02 0.11804606069E+02 0.10674251851E+02 0.95889830930E+01 0.85859622551E+01
 0.76901298298E+01 0.69129294794E+01 0.62545652651E+01 0.57083232602E+01 0.52651247514E+01
 0.49169101849E+01 0.46582643861E+01 0.44864677196E+01 0.44006265237E+01 0.44006261826E+01
 0.44864672914E+01 0.46582646140E+01 0.49169106280E+01 0.52651244713E+01 0.57083224132E+01
 0.62545649358E+01 0.69129300314E+01 0.76901304654E+01 0.85859623623E+01 0.95889830292E+01
 0.10674251995E+02 0.11804606018E+02 0.12935666938E+02 0.14011245001E+02 0.14917787590E+02
 0.15544271449E+02 0.15827370511E+02 0.16464169668E+02 0.16501451456E+02 0.16403259304E+02
 0.16255464744E+02 0.16133128796E+02 0.16086497140E+02 0.16133128721E+02 0.16255464647E+02
 0.16403259234E+02 0.16501451421E+02 0.16464169663E+02 0.16213669892E+02 0.15700268330E+02
 0.14917787226E+02 0.13909663416E+02 0.12763211315E+02 0.11577980598E+02 0.10405435730E+02
 0.92846486588E+01 0.82496095089E+01 0.73239545726E+01 0.65189610619E+01 0.58349794751E+01
 0.52651244635E+01 0.47995209014E+01 0.44286975893E+01 0.41454546300E+01 0.39452738423E+01
 0.38258061466E+01 0.37860673149E+01 0.38258061435E+01 0.39452738411E+01 0.41454546431E+01
 0.44286976227E+01 0.47995209373E+01 0.52651244713E+01 0.58349794465E+01 0.65189610211E+01
 0.73239545475E+01 0.82496095081E+01 0.92846486814E+01 0.10405435777E+02 0.11577980655E+02
 0.12763211343E+02 0.13909663380E+02 0.14917787142E+02 0.15700268253E+02 0.16213669857E+02
 0.17485688999E+02 0.17873731462E+02 0.18118925380E+02 0.18258791253E+02 0.18321432109E+02
 0.18321432096E+02 0.18258791288E+02 0.18118925433E+02 0.17873731229E+02 0.17485688388E+02
 0.16916798500E+02 0.16141680739E+02 0.15161161840E+02 0.14011245520E+02 0.12763211315E+02
 0.11500495566E+02 0.10267159678E+02 0.90972647923E+01 0.80209889090E+01 0.70596181662E+01
 0.62232180527E+01 0.55114859838E+01 0.49169101984E+01 0.44286971451E+01 0.40360827385E+01
 0.37302949614E+01 0.35051592316E+01 0.33568140561E+01 0.32831125876E+01 0.32831127961E+01
 0.33568143398E+01 0.35051591280E+01 0.37302946532E+01 0.40360827822E+01 0.44286976227E+01
 0.49169106280E+01 0.55114860177E+01 0.62232178017E+01 0.70596178177E+01 0.80209885090E+01
 0.90972645349E+01 0.10267159913E+02 0.11500496213E+02 0.12763211669E+02 0.14011245063E+02
 0.15161161011E+02 0.16141680434E+02 0.16916798953E+02 0.18657750843E+02 0.19310407101E+02
 0.19776823028E+02 0.20057306202E+02 0.20150999669E+02 0.20057306272E+02 0.19776823116E+02
 0.19310407154E+02 0.18657750856E+02 0.17818393518E+02 0.16797025482E+02 0.15612017092E+02
 0.14303394091E+02 0.12935667534E+02 0.11577980598E+02 0.10267159678E+02 0.90338743575E+01
 0.79049730119E+01 0.68992024370E+01 0.60249539760E+01 0.52808019346E+01 0.46582646010E+01
 0.41454546435E+01 0.37302946633E+01 0.34025227407E+01 0.31544061754E+01 0.29805821783E+01
 0.28775870976E+01 0.28434671343E+01 0.28775870942E+01 0.29805821702E+01 0.31544061628E+01
 0.34025227266E+01 0.37302946532E+01 0.41454546431E+01 0.46582646140E+01 0.52808019602E+01
 0.60249540047E+01 0.68992024513E+01 0.79049729946E+01 0.90338743083E+01 0.10267159623E+02
 0.11577980572E+02 0.12935667553E+02 0.14303394137E+02 0.15612017135E+02 0.16797025509E+02
 0.17818393530E+02 0.19809422051E+02 0.20613032082E+02 0.21167554376E+02 0.21451045592E+02
 0.21451045488E+02 0.21167554121E+02 0.20613031875E+02 0.19809422164E+02 0.18784647791E+02
 0.17571536718E+02 0.16210300958E+02 0.14752864406E+02 0.13265005871E+02 0.11804606069E+02
 0.10405435730E+02 0.90972647923E+01 0.79049730119E+01 0.68453454379E+01 0.59252509033E+01
 0.51421243751E+01 0.44864676942E+01 0.39452741934E+01 0.35051592369E+01 0.31544060723E+01
 0.28837722690E+01 0.26864150053E+01 0.25574865073E+01 0.24938178970E+01 0.24938178416E+01
 0.25574864133E+01 0.26864150014E+01 0.28837723792E+01 0.31544061628E+01 0.35051591280E+01
 0.39452738411E+01 0.44864672914E+01 0.51421242510E+01 0.59252512332E+01 0.68453460046E+01
 0.79049733401E+01 0.90972646276E+01 0.10405435351E+02 0.11804605993E+02 0.13265006240E+02
 0.14752864802E+02 0.16210300900E+02 0.17571536222E+02 0.18784647309E+02 0.20809943321E+02
 0.21648179071E+02 0.22171145272E+02 0.22349006183E+02 0.22171145223E+02 0.21648178991E+02
 0.20809943242E+02 0.19700666065E+02 0.18374070520E+02 0.16890677844E+02 0.15317508925E+02
 0.13725184542E+02 0.12164998450E+02 0.10674251851E+02 0.92846486588E+01 0.80209889090E+01
 0.68992024370E+01 0.59252509033E+01 0.50958052796E+01 0.44006261934E+01 0.38258061431E+01
 0.33568143397E+01 0.29805821724E+01 0.26864150006E+01 0.24660127866E+01 0.23131182884E+01
 0.22232357429E+01 0.21935904871E+01 0.22232357542E+01 0.23131183026E+01 0.24660127950E+01
 0.26864150014E+01 0.29805821702E+01 0.33568143398E+01 0.38258061435E+01 0.44006261826E+01
 0.50958052467E+01 0.59252508567E+01 0.68992024115E+01 0.80209889416E+01 0.92846487479E+01
 0.10674251945E+02 0.12164998482E+02 0.13725184488E+02 0.15317508821E+02 0.16890677755E+02
 0.18374070493E+02 0.19700666105E+02 0.21590617936E+02 0.22362687407E+02 0.22761944341E+02
 0.22761944455E+02 0.22362687670E+02 0.21590618176E+02 0.20494609940E+02 0.19139754871E+02
 0.17601337215E+02 0.15959961068E+02 0.14287626915E+02 0.12639582257E+02 0.11061249974E+02
 0.95889830930E+01 0.82496095089E+01 0.70596181662E+01 0.60249539760E+01 0.51421243751E+01
 0.44006261934E+01 0.37860668626E+01 0.32831126005E+01 0.28775871702E+01 0.25574864982E+01
 0.23131182699E+01 0.21368260542E+01 0.20227387422E+01 0.19667621384E+01 0.19667620857E+01
 0.20227386773E+01 0.21368260824E+01 0.23131183026E+01 0.25574864133E+01 0.28775870942E+01
 0.32831127961E+01 0.37860673149E+01 0.44006265237E+01 0.51421242706E+01 0.60249535580E+01
 0.70596177989E+01 0.82496093532E+01 0.95889830177E+01 0.11061249860E+02 0.12639582199E+02
 0.14287627068E+02 0.15959961417E+02 0.17601337572E+02 0.19139755053E+02 0.20494609880E+02
 0.22146417403E+02 0.22776417921E+02 0.22991560857E+02 0.22776417952E+02 0.22146417472E+02
 0.21145676445E+02 0.19841285029E+02 0.18315482418E+02 0.16652358574E+02 0.14928492682E+02
 0.13210642218E+02 0.11554126513E+02 0.10002238897E+02 0.85859622551E+01 0.73239545726E+01
 0.62232180527E+01 0.52808019346E+01 0.44864676942E+01 0.38258061431E+01 0.32831126005E+01
 0.28434671467E+01 0.24938178397E+01 0.22232357424E+01 0.20227386736E+01 0.18850923358E+01
 0.18048271376E+01 0.17784712345E+01 0.18048271214E+01 0.18850923228E+01 0.20227386773E+01
 0.22232357542E+01 0.24938178416E+01 0.28434671343E+01 0.32831125876E+01 0.38258061466E+01
 0.44864677196E+01 0.52808019722E+01 0.62232180792E+01 0.73239545607E+01 0.85859621961E+01
 0.10002238822E+02 0.11554126483E+02 0.13210642272E+02 0.14928492794E+02 0.16652358669E+02
 0.18315482431E+02 0.19841284962E+02 0.21145676351E+02 0.22521416071E+02 0.22960246652E+02
 0.22960246576E+02 0.22521415904E+02 0.21676121460E+02 0.20483805490E+02 0.19022059279E+02
 0.17376566256E+02 0.15632159876E+02 0.13866216366E+02 0.12144493631E+02 0.10518890335E+02
 0.90265621492E+01 0.76901298298E+01 0.65189610619E+01 0.55114859838E+01 0.46582646010E+01
 0.39452741934E+01 0.33568143397E+01 0.28775871702E+01 0.24938178397E+01 0.21935904827E+01
 0.19667621464E+01 0.18048270952E+01 0.17009658786E+01 0.16503133068E+01 0.16503133970E+01
 0.17009660254E+01 0.18048271214E+01 0.19667620857E+01 0.21935904871E+01 0.24938178970E+01
 0.28775870976E+01 0.33568140561E+01 0.39452738423E+01 0.46582643861E+01 0.55114860209E+01
 0.65189614050E+01 0.76901304537E+01 0.90265628066E+01 0.10518890602E+02 0.12144493285E+02
 0.13866215667E+02 0.15632159327E+02 0.17376566110E+02 0.19022059405E+02 0.20483805675E+02
 0.21676121641E+02 0.22771275097E+02 0.22995641076E+02 0.22771275074E+02 0.22114477832E+02
 0.21071711144E+02 0.19712952585E+02 0.18122565394E+02 0.16389714453E+02 0.14599947019E+02
 0.12828796304E+02 0.11137602384E+02 0.95714089593E+01 0.81587253158E+01 0.69129294794E+01
 0.58349794751E+01 0.49169101984E+01 0.41454546435E+01 0.35051592369E+01 0.29805821724E+01
 0.25574864982E+01 0.22232357424E+01 0.19667621464E+01 0.17784712378E+01 0.16503133875E+01
 0.15760741247E+01 0.15517842250E+01 0.15760741373E+01 0.16503133970E+01 0.17784712345E+01
 0.19667621384E+01 0.22232357429E+01 0.25574865073E+01 0.29805821783E+01 0.35051592316E+01
 0.41454546300E+01 0.49169101849E+01 0.58349794697E+01 0.69129294899E+01 0.81587253448E+01
 0.95714089913E+01 0.11137602387E+02 0.12828796256E+02 0.14599946938E+02 0.16389714390E+02
 0.18122565392E+02 0.19712952642E+02 0.21071711218E+02 0.22114477886E+02 0.22915747355E+02
 0.22915747390E+02 0.22467623479E+02 0.21603176971E+02 0.20381645793E+02 0.18882013622E+02
 0.17193653392E+02 0.15406998785E+02 0.13605526797E+02 0.11859788993E+02 0.10223791347E+02
 0.87337416266E+01 0.74089667218E+01 0.62545652651E+01 0.52651244635E+01 0.44286971451E+01
 0.37302946633E+01 0.31544060723E+01 0.26864150006E+01 0.23131182699E+01 0.20227386736E+01
 0.18048270952E+01 0.16503133875E+01 0.15517843924E+01 0.15039179550E+01 0.15039178667E+01
 0.15517842250E+01 0.16503133068E+01 0.18048271376E+01 0.20227387422E+01 0.23131182884E+01
 0.26864150053E+01 0.31544061754E+01 0.37302949614E+01 0.44286975893E+01 0.52651247514E+01
 0.62545649773E+01 0.74089657704E+01 0.87337405598E+01 0.10223790979E+02 0.11859789603E+02
 0.13605527820E+02 0.15406999417E+02 0.17193653377E+02 0.18882013310E+02 0.20381645564E+02
 0.21603176872E+02 0.22467623412E+02 0.22963014883E+02 0.22736322577E+02 0.22072400621E+02
 0.21017522331E+02 0.19642011072E+02 0.18031615269E+02 0.16277980916E+02 0.14469718637E+02
 0.12685126818E+02 0.10987171331E+02 0.94209603827E+01 0.80136618549E+01 0.67765183238E+01
 0.57083232602E+01 0.47995209014E+01 0.40360827385E+01 0.34025227407E+01 0.28837722690E+01
 0.24660127866E+01 0.21368260542E+01 0.18850923358E+01 0.17009658786E+01 0.15760741247E+01
 0.15039179550E+01 0.14803433797E+01 0.15039179550E+01 0.15760741247E+01 0.17009658786E+01
 0.18850923358E+01 0.21368260542E+01 0.24660127866E+01 0.28837722690E+01 0.34025227407E+01
 0.40360827385E+01 0.47995209014E+01 0.57083232602E+01 0.67765183238E+01 0.80136618549E+01
 0.94209603827E+01 0.10987171331E+02 0.12685126818E+02 0.14469718637E+02 0.16277980916E+02
 0.18031615269E+02 0.19642011072E+02 0.21017522331E+02 0.22072400621E+02 0.22736322577E+02
 0.22915747355E+02 0.22467623412E+02 0.21603176872E+02 0.20381645564E+02 0.18882013310E+02
 0.17193653377E+02 0.15406999417E+02 0.13605527820E+02 0.11859789603E+02 0.10223790979E+02
 0.87337405598E+01 0.74089657704E+01 0.62545649773E+01 0.52651247514E+01 0.44286975893E+01
 0.37302949614E+01 0.31544061754E+01 0.26864150053E+01 0.23131182884E+01 0.20227387422E+01
 0.18048271376E+01 0.16503133068E+01 0.15517842250E+01 0.15039178667E+01 0.15039179550E+01
 0.15517843924E+01 0.16503133875E+01 0.18048270952E+01 0.20227386736E+01 0.23131182699E+01
 0.26864150006E+01 0.31544060723E+01 0.37302946633E+01 0.44286971451E+01 0.52651244635E+01
 0.62545652651E+01 0.74089667218E+01 0.87337416266E+01 0.10223791347E+02 0.11859788993E+02
 0.13605526797E+02 0.15406998785E+02 0.17193653392E+02 0.18882013622E+02 0.20381645793E+02
 0.21603176971E+02 0.22467623479E+02 0.22915747390E+02 0.22771275097E+02 0.22114477886E+02
 0.21071711218E+02 0.19712952642E+02 0.18122565392E+02 0.16389714390E+02 0.14599946938E+02
 0.12828796256E+02 0.11137602387E+02 0.95714089913E+01 0.81587253448E+01 0.69129294899E+01
 0.58349794697E+01 0.49169101849E+01 0.41454546300E+01 0.35051592316E+01 0.29805821783E+01
 0.25574865073E+01 0.22232357429E+01 0.19667621384E+01 0.17784712345E+01 0.16503133970E+01
 0.15760741373E+01 0.15517842250E+01 0.15760741247E+01 0.16503133875E+01 0.17784712378E+01
 0.19667621464E+01 0.22232357424E+01 0.25574864982E+01 0.29805821724E+01 0.35051592369E+01
 0.41454546435E+01 0.49169101984E+01 0.58349794751E+01 0.69129294794E+01 0.81587253158E+01
 0.95714089593E+01 0.11137602384E+02 0.12828796304E+02 0.14599947019E+02 0.16389714453E+02
 0.18122565394E+02 0.19712952585E+02 0.21071711144E+02 0.22114477832E+02 0.22771275074E+02
 0.22995641076E+02 0.22521416071E+02 0.21676121641E+02 0.20483805675E+02 0.19022059405E+02
 0.17376566110E+02 0.15632159327E+02 0.13866215667E+02 0.12144493285E+02 0.10518890602E+02
 0.90265628066E+01 0.76901304537E+01 0.65189614050E+01 0.55114860209E+01 0.46582643861E+01
 0.39452738423E+01 0.33568140561E+01 0.28775870976E+01 0.24938178970E+01 0.21935904871E+01
 0.19667620857E+01 0.18048271214E+01 0.17009660254E+01 0.16503133970E+01 0.16503133068E+01
 0.17009658786E+01 0.18048270952E+01 0.19667621464E+01 0.21935904827E+01 0.24938178397E+01
 0.28775871702E+01 0.33568143397E+01 0.39452741934E+01 0.46582646010E+01 0.55114859838E+01
 0.65189610619E+01 0.76901298298E+01 0.90265621492E+01 0.10518890335E+02 0.12144493631E+02
 0.13866216366E+02 0.15632159876E+02 0.17376566256E+02 0.19022059279E+02 0.20483805490E+02
 0.21676121460E+02 0.22521415904E+02 0.22960246576E+02 0.22960246652E+02 0.22146417403E+02
 0.21145676351E+02 0.19841284962E+02 0.18315482431E+02 0.16652358669E+02 0.14928492794E+02
 0.13210642272E+02 0.11554126483E+02 0.10002238822E+02 0.85859621961E+01 0.73239545607E+01
 0.62232180792E+01 0.52808019722E+01 0.44864677196E+01 0.38258061466E+01 0.32831125876E+01
 0.28434671343E+01 0.24938178416E+01 0.22232357542E+01 0.20227386773E+01 0.18850923228E+01
 0.18048271214E+01 0.17784712345E+01 0.18048271376E+01 0.18850923358E+01 0.20227386736E+01
 0.22232357424E+01 0.24938178397E+01 0.28434671467E+01 0.32831126005E+01 0.38258061431E+01
 0.44864676942E+01 0.52808019346E+01 0.62232180527E+01 0.73239545726E+01 0.85859622551E+01
 0.10002238897E+02 0.11554126513E+02 0.13210642218E+02 0.14928492682E+02 0.16652358574E+02
 0.18315482418E+02 0.19841285029E+02 0.21145676445E+02 0.22146417472E+02 0.22776417952E+02
 0.22991560857E+02 0.22776417921E+02 0.21590617936E+02 0.20494609880E+02 0.19139755053E+02
 0.17601337572E+02 0.15959961417E+02 0.14287627068E+02 0.12639582199E+02 0.11061249860E+02
 0.95889830177E+01 0.82496093532E+01 0.70596177989E+01 0.60249535580E+01 0.51421242706E+01
 0.44006265237E+01 0.37860673149E+01 0.32831127961E+01 0.28775870942E+01 0.25574864133E+01
 0.23131183026E+01 0.21368260824E+01 0.20227386773E+01 0.19667620857E+01 0.19667621384E+01
 0.20227387422E+01 0.21368260542E+01 0.23131182699E+01 0.25574864982E+01 0.28775871702E+01
 0.32831126005E+01 0.37860668626E+01 0.44006261934E+01 0.51421243751E+01 0.60249539760E+01
 0.70596181662E+01 0.82496095089E+01 0.95889830930E+01 0.11061249974E+02 0.12639582257E+02
 0.14287626915E+02 0.15959961068E+02 0.17601337215E+02 0.19139754871E+02 0.20494609940E+02
 0.21590618176E+02 0.22362687670E+02 0.22761944455E+02 0.22761944341E+02 0.22362687407E+02
 0.20809943321E+02 0.19700666105E+02 0.18374070493E+02 0.16890677755E+02 0.15317508821E+02
 0.13725184488E+02 0.12164998482E+02 0.10674251945E+02 0.92846487479E+01 0.80209889416E+01
 0.68992024115E+01 0.59252508567E+01 0.50958052467E+01 0.44006261826E+01 0.38258061435E+01
 0.33568143398E+01 0.29805821702E+01 0.26864150014E+01 0.24660127950E+01 0.23131183026E+01
 0.22232357542E+01 0.21935904871E+01 0.22232357429E+01 0.23131182884E+01 0.24660127866E+01
 0.26864150006E+01 0.29805821724E+01 0.33568143397E+01 0.38258061431E+01 0.44006261934E+01
 0.50958052796E+01 0.59252509033E+01 0.68992024370E+01 0.80209889090E+01 0.92846486588E+01
 0.10674251851E+02 0.12164998450E+02 0.13725184542E+02 0.15317508925E+02 0.16890677844E+02
 0.18374070520E+02 0.19700666065E+02 0.20809943242E+02 0.21648178991E+02 0.22171145223E+02
 0.22349006183E+02 0.22171145272E+02 0.21648179071E+02 0.19809422051E+02 0.18784647309E+02
 0.17571536222E+02 0.16210300900E+02 0.14752864802E+02 0.13265006240E+02 0.11804605993E+02
 0.10405435351E+02 0.90972646276E+01 0.79049733401E+01 0.68453460046E+01 0.59252512332E+01
 0.51421242510E+01 0.44864672914E+01 0.39452738411E+01 0.35051591280E+01 0.31544061628E+01
 0.28837723792E+01 0.26864150014E+01 0.25574864133E+01 0.24938178416E+01 0.24938178970E+01
 0.25574865073E+01 0.26864150053E+01 0.28837722690E+01 0.31544060723E+01 0.35051592369E+01
 0.39452741934E+01 0.44864676942E+01 0.51421243751E+01 0.59252509033E+01 0.68453454379E+01
 0.79049730119E+01 0.90972647923E+01 0.10405435730E+02 0.11804606069E+02 0.13265005871E+02
 0.14752864406E+02 0.16210300958E+02 0.17571536718E+02 0.18784647791E+02 0.19809422164E+02
 0.20613031875E+02 0.21167554121E+02 0.21451045488E+02 0.21451045592E+02 0.21167554376E+02
 0.20613032082E+02 0.18657750843E+02 0.17818393530E+02 0.16797025509E+02 0.15612017135E+02
 0.14303394137E+02 0.12935667553E+02 0.11577980572E+02 0.10267159623E+02 0.90338743083E+01
 0.79049729946E+01 0.68992024513E+01 0.60249540047E+01 0.52808019602E+01 0.46582646140E+01
 0.41454546431E+01 0.37302946532E+01 0.34025227266E+01 0.31544061628E+01 0.29805821702E+01
 0.28775870942E+01 0.28434671343E+01 0.28775870976E+01 0.29805821783E+01 0.31544061754E+01
 0.34025227407E+01 0.37302946633E+01 0.41454546435E+01 0.46582646010E+01 0.52808019346E+01
 0.60249539760E+01 0.68992024370E+01 0.79049730119E+01 0.90338743575E+01 0.10267159678E+02
 0.11577980598E+02 0.12935667534E+02 0.14303394091E+02 0.15612017092E+02 0.16797025482E+02
 0.17818393518E+02 0.18657750856E+02 0.19310407154E+02 0.19776823116E+02 0.20057306272E+02
 0.20150999669E+02 0.20057306202E+02 0.19776823028E+02 0.19310407101E+02 0.17485688999E+02
 0.16916798953E+02 0.16141680434E+02 0.15161161011E+02 0.14011245063E+02 0.12763211669E+02
 0.11500496213E+02 0.10267159913E+02 0.90972645349E+01 0.80209885090E+01 0.70596178177E+01
 0.62232178017E+01 0.55114860177E+01 0.49169106280E+01 0.44286976227E+01 0.40360827822E+01
 0.37302946532E+01 0.35051591280E+01 0.33568143398E+01 0.32831127961E+01 0.32831125876E+01
 0.33568140561E+01 0.35051592316E+01 0.37302949614E+01 0.40360827385E+01 0.44286971451E+01
 0.49169101984E+01 0.55114859838E+01 0.62232180527E+01 0.70596181662E+01 0.80209889090E+01
 0.90972647923E+01 0.10267159678E+02 0.11500495566E+02 0.12763211315E+02 0.14011245520E+02
 0.15161161840E+02 0.16141680739E+02 0.16916798500E+02 0.17485688388E+02 0.17873731229E+02
 0.18118925433E+02 0.18258791288E+02 0.18321432096E+02 0.18321432109E+02 0.18258791253E+02