   2   2   0   0
  0.2079688E+02  0.3889087E-09  0.3889087E-09  0.3889087E-09  0.5000000E-15
  1.000000000000000E-004
  CAR 
 Real silicon (diamond-like)             
     30.20534863     -7.93208185  301      5.91995167      1.00000000
     -7.932  0.0000E+00  0.0000E+00
     -7.805  0.0000E+00  0.0000E+00
     -7.678  0.0000E+00  0.0000E+00
     -7.551  0.0000E+00  0.0000E+00
     -7.424  0.0000E+00  0.0000E+00
     -7.296  0.0000E+00  0.0000E+00
     -7.169  0.0000E+00  0.0000E+00
     -7.042  0.0000E+00  0.0000E+00
     -6.915  0.0000E+00  0.0000E+00
     -6.788  0.1294E-19  0.1645E-20
     -6.661  0.7496E-14  0.9530E-15
     -6.534  0.2803E-09  0.3563E-10
     -6.407  0.5845E-06  0.7434E-07
     -6.279  0.9588E-04  0.1226E-04
     -6.152  0.1616E-02  0.2177E-03
     -6.025  0.5486E-02  0.9151E-03
     -5.898  0.8281E-02  0.1968E-02
     -5.771  0.1136E-01  0.3412E-02
     -5.644  0.1187E-01  0.4920E-02
     -5.517  0.1500E-01  0.6828E-02
     -5.390  0.1639E-01  0.8911E-02
     -5.262  0.1508E-01  0.1083E-01
     -5.135  0.2197E-01  0.1362E-01
     -5.008  0.1913E-01  0.1605E-01
     -4.881  0.1981E-01  0.1857E-01
     -4.754  0.2498E-01  0.2175E-01
     -4.627  0.2727E-01  0.2521E-01
     -4.500  0.2176E-01  0.2798E-01
     -4.373  0.2803E-01  0.3154E-01
     -4.245  0.3450E-01  0.3593E-01
     -4.118  0.3290E-01  0.4011E-01
     -3.991  0.2903E-01  0.4380E-01
     -3.864  0.4633E-01  0.4969E-01
     -3.737  0.5033E-01  0.5609E-01
     -3.610  0.3235E-01  0.6020E-01
     -3.483  0.4076E-01  0.6539E-01
     -3.356  0.4174E-01  0.7069E-01
     -3.228  0.3634E-01  0.7531E-01
     -3.101  0.2489E-01  0.7847E-01
     -2.974  0.3597E-01  0.8305E-01
     -2.847  0.3199E-01  0.8711E-01
     -2.720  0.1723E-01  0.8931E-01
     -2.593  0.2507E-01  0.9249E-01
     -2.466  0.2691E-01  0.9591E-01
     -2.339  0.1039E-01  0.9723E-01
     -2.211  0.1077E-01  0.9860E-01
     -2.084  0.1138E-01  0.1000E+00
     -1.957  0.6147E-02  0.1008E+00
     -1.830  0.5582E-02  0.1015E+00
     -1.703  0.8803E-02  0.1027E+00
     -1.576  0.2113E-01  0.1053E+00
     -1.449  0.2503E-01  0.1085E+00
     -1.322  0.1831E-01  0.1109E+00
     -1.194  0.3685E-01  0.1155E+00
     -1.067  0.7905E-01  0.1256E+00
     -0.940  0.6018E-01  0.1332E+00
     -0.813  0.4181E-01  0.1386E+00
     -0.686  0.4606E-01  0.1444E+00
     -0.559  0.3251E-01  0.1485E+00
     -0.432  0.3269E-01  0.1527E+00
     -0.305  0.2346E-01  0.1557E+00
     -0.177  0.2882E-01  0.1593E+00
     -0.050  0.2434E-01  0.1624E+00
      0.077  0.2236E-01  0.1653E+00
      0.204  0.1605E-01  0.1673E+00
      0.331  0.1873E-01  0.1697E+00
      0.458  0.2506E-01  0.1729E+00
      0.585  0.1118E-01  0.1743E+00
      0.712  0.1363E-01  0.1760E+00
      0.840  0.1755E-01  0.1783E+00
      0.967  0.7495E-02  0.1792E+00
      1.094  0.1877E-01  0.1816E+00
      1.221  0.1384E-01  0.1834E+00
      1.348  0.1253E-01  0.1850E+00
      1.475  0.3406E-01  0.1893E+00
      1.602  0.4842E-01  0.1955E+00
      1.729  0.6361E-01  0.2035E+00
      1.857  0.6257E-01  0.2115E+00
      1.984  0.4788E-01  0.2176E+00
      2.111  0.4296E-01  0.2230E+00
      2.238  0.6799E-01  0.2317E+00
      2.365  0.4907E-01  0.2379E+00
      2.492  0.4455E-01  0.2436E+00
      2.619  0.6713E-01  0.2521E+00
      2.746  0.7390E-01  0.2615E+00
      2.874  0.6581E-01  0.2699E+00
      3.001  0.7479E-01  0.2794E+00
      3.128  0.7790E-01  0.2893E+00
      3.255  0.6281E-01  0.2973E+00
      3.382  0.6971E-01  0.3061E+00
      3.509  0.9168E-01  0.3178E+00
      3.636  0.6439E-01  0.3260E+00
      3.763  0.5294E-01  0.3327E+00
      3.891  0.6371E-01  0.3408E+00
      4.018  0.6757E-01  0.3494E+00
      4.145  0.6022E-01  0.3571E+00
      4.272  0.6231E-01  0.3650E+00
      4.399  0.5341E-01  0.3718E+00
      4.526  0.5484E-01  0.3787E+00
      4.653  0.3685E-01  0.3834E+00
      4.780  0.3048E-01  0.3873E+00
      4.908  0.2252E-01  0.3902E+00
      5.035  0.2275E-01  0.3930E+00
      5.162  0.2190E-01  0.3958E+00
      5.289  0.1366E-01  0.3976E+00
      5.416  0.9609E-02  0.3988E+00
      5.543  0.5963E-02  0.3995E+00
      5.670  0.3223E-02  0.4000E+00
      5.797  0.3264E-03  0.4000E+00
      5.925  0.4358E-05  0.4000E+00
      6.052  0.7921E-05  0.4000E+00
      6.179  0.4294E-03  0.4001E+00
      6.306  0.2841E-02  0.4004E+00
      6.433  0.8703E-02  0.4015E+00
      6.560  0.1170E-01  0.4030E+00
      6.687  0.1752E-01  0.4052E+00
      6.814  0.2263E-01  0.4081E+00
      6.942  0.2854E-01  0.4117E+00
      7.069  0.3493E-01  0.4162E+00
      7.196  0.3337E-01  0.4204E+00
      7.323  0.3259E-01  0.4246E+00
      7.450  0.4234E-01  0.4300E+00
      7.577  0.5901E-01  0.4375E+00
      7.704  0.6074E-01  0.4452E+00
      7.831  0.6983E-01  0.4541E+00
      7.959  0.9197E-01  0.4657E+00
      8.086  0.8165E-01  0.4761E+00
      8.213  0.7689E-01  0.4859E+00
      8.340  0.6000E-01  0.4935E+00
      8.467  0.4490E-01  0.4992E+00
      8.594  0.5155E-01  0.5058E+00
      8.721  0.4682E-01  0.5117E+00
      8.848  0.8001E-01  0.5219E+00
      8.976  0.1162E+00  0.5367E+00
      9.103  0.1029E+00  0.5498E+00
      9.230  0.8900E-01  0.5611E+00
      9.357  0.8191E-01  0.5715E+00
      9.484  0.8732E-01  0.5826E+00
      9.611  0.6566E-01  0.5909E+00
      9.738  0.5747E-01  0.5982E+00
      9.865  0.5635E-01  0.6054E+00
      9.993  0.5788E-01  0.6128E+00
     10.120  0.6633E-01  0.6212E+00
     10.247  0.7893E-01  0.6312E+00
     10.374  0.4606E-01  0.6371E+00
     10.501  0.6265E-01  0.6450E+00
     10.628  0.8334E-01  0.6556E+00
     10.755  0.7837E-01  0.6656E+00
     10.882  0.6772E-01  0.6742E+00
     11.010  0.5361E-01  0.6810E+00
     11.137  0.3789E-01  0.6858E+00
     11.264  0.3775E-01  0.6906E+00
     11.391  0.3985E-01  0.6957E+00
     11.518  0.4452E-01  0.7014E+00
     11.645  0.6627E-01  0.7098E+00
     11.772  0.7749E-01  0.7196E+00
     11.899  0.8023E-01  0.7298E+00
     12.027  0.6073E-01  0.7376E+00
     12.154  0.4888E-01  0.7438E+00
     12.281  0.4618E-01  0.7497E+00
     12.408  0.5615E-01  0.7568E+00
     12.535  0.4462E-01  0.7625E+00
     12.662  0.4033E-01  0.7676E+00
     12.789  0.4826E-01  0.7737E+00
     12.916  0.6797E-01  0.7824E+00
     13.044  0.7629E-01  0.7921E+00
     13.171  0.9067E-01  0.8036E+00
     13.298  0.6290E-01  0.8116E+00
     13.425  0.6508E-01  0.8199E+00
     13.552  0.7170E-01  0.8290E+00
     13.679  0.4709E-01  0.8350E+00
     13.806  0.4548E-01  0.8407E+00
     13.933  0.4113E-01  0.8460E+00
     14.061  0.6032E-01  0.8536E+00
     14.188  0.5386E-01  0.8605E+00
     14.315  0.5983E-01  0.8681E+00
     14.442  0.1018E+00  0.8810E+00
     14.569  0.7976E-01  0.8912E+00
     14.696  0.6073E-01  0.8989E+00
     14.823  0.5992E-01  0.9065E+00
     14.950  0.7340E-01  0.9158E+00
     15.078  0.6821E-01  0.9245E+00
     15.205  0.4699E-01  0.9305E+00
     15.332  0.4600E-01  0.9363E+00
     15.459  0.8784E-01  0.9475E+00
     15.586  0.8497E-01  0.9583E+00
     15.713  0.5873E-01  0.9658E+00
     15.840  0.5392E-01  0.9726E+00
     15.967  0.6655E-01  0.9811E+00
     16.094  0.7638E-01  0.9908E+00
     16.222  0.7385E-01  0.1000E+01
     16.349  0.5074E-01  0.1007E+01
     16.476  0.5121E-01  0.1013E+01
     16.603  0.5785E-01  0.1020E+01
     16.730  0.5299E-01  0.1027E+01
     16.857  0.6400E-01  0.1035E+01
     16.984  0.6879E-01  0.1044E+01
     17.111  0.5707E-01  0.1051E+01
     17.239  0.6869E-01  0.1060E+01
     17.366  0.8296E-01  0.1071E+01
     17.493  0.6371E-01  0.1079E+01
     17.620  0.7936E-01  0.1089E+01
     17.747  0.9344E-01  0.1101E+01
     17.874  0.7882E-01  0.1111E+01
     18.001  0.7343E-01  0.1120E+01
     18.128  0.6173E-01  0.1128E+01
     18.256  0.6335E-01  0.1136E+01
     18.383  0.9508E-01  0.1148E+01
     18.510  0.9965E-01  0.1161E+01
     18.637  0.5313E-01  0.1167E+01
     18.764  0.4742E-01  0.1173E+01
     18.891  0.7638E-01  0.1183E+01
     19.018  0.1114E+00  0.1197E+01
     19.145  0.1053E+00  0.1211E+01
     19.273  0.7392E-01  0.1220E+01
     19.400  0.8956E-01  0.1232E+01
     19.527  0.8910E-01  0.1243E+01
     19.654  0.6847E-01  0.1252E+01
     19.781  0.7049E-01  0.1261E+01
     19.908  0.8720E-01  0.1272E+01
     20.035  0.6861E-01  0.1280E+01
     20.162  0.5867E-01  0.1288E+01
     20.290  0.7159E-01  0.1297E+01
     20.417  0.7550E-01  0.1306E+01
     20.544  0.7116E-01  0.1316E+01
     20.671  0.1008E+00  0.1328E+01
     20.798  0.7978E-01  0.1338E+01
     20.925  0.6101E-01  0.1346E+01
     21.052  0.6574E-01  0.1355E+01
     21.179  0.9554E-01  0.1367E+01
     21.307  0.7987E-01  0.1377E+01
     21.434  0.5531E-01  0.1384E+01
     21.561  0.6778E-01  0.1393E+01
     21.688  0.5858E-01  0.1400E+01
     21.815  0.6080E-01  0.1408E+01
     21.942  0.7915E-01  0.1418E+01
     22.069  0.7636E-01  0.1427E+01
     22.196  0.6958E-01  0.1436E+01
     22.324  0.6445E-01  0.1445E+01
     22.451  0.6479E-01  0.1453E+01
     22.578  0.8434E-01  0.1463E+01
     22.705  0.1027E+00  0.1477E+01
     22.832  0.8693E-01  0.1488E+01
     22.959  0.6098E-01  0.1495E+01
     23.086  0.7483E-01  0.1505E+01
     23.213  0.9538E-01  0.1517E+01
     23.341  0.8667E-01  0.1528E+01
     23.468  0.7649E-01  0.1538E+01
     23.595  0.5547E-01  0.1545E+01
     23.722  0.8258E-01  0.1555E+01
     23.849  0.8088E-01  0.1566E+01
     23.976  0.6104E-01  0.1573E+01
     24.103  0.5047E-01  0.1580E+01
     24.230  0.2883E-01  0.1583E+01
     24.358  0.1039E-01  0.1585E+01
     24.485  0.2074E-01  0.1587E+01
     24.612  0.2717E-01  0.1591E+01
     24.739  0.1490E-01  0.1593E+01
     24.866  0.1017E-01  0.1594E+01
     24.993  0.5352E-02  0.1595E+01
     25.120  0.4055E-02  0.1595E+01
     25.247  0.4287E-02  0.1596E+01
     25.375  0.8192E-02  0.1597E+01
     25.502  0.7486E-02  0.1598E+01
     25.629  0.8969E-03  0.1598E+01
     25.756  0.6317E-03  0.1598E+01
     25.883  0.6748E-03  0.1598E+01
     26.010  0.3001E-03  0.1598E+01
     26.137  0.3528E-02  0.1598E+01
     26.264  0.5826E-02  0.1599E+01
     26.392  0.2366E-02  0.1600E+01
     26.519  0.1552E-03  0.1600E+01
     26.646  0.7032E-06  0.1600E+01
     26.773  0.1596E-09  0.1600E+01
     26.900  0.1625E-14  0.1600E+01
     27.027  0.7924E-13  0.1600E+01
     27.154  0.2319E-08  0.1600E+01
     27.281  0.3032E-05  0.1600E+01
     27.409  0.2009E-03  0.1600E+01
     27.536  0.8748E-03  0.1600E+01
     27.663  0.3391E-03  0.1600E+01
     27.790  0.6340E-03  0.1600E+01
     27.917  0.1064E-02  0.1600E+01
     28.044  0.1456E-03  0.1600E+01
     28.171  0.1233E-05  0.1600E+01
     28.298  0.1656E-05  0.1600E+01
     28.426  0.5816E-04  0.1600E+01
     28.553  0.1438E-03  0.1600E+01
     28.680  0.2906E-04  0.1600E+01
     28.807  0.3799E-06  0.1600E+01
     28.934  0.2494E-09  0.1600E+01
     29.061  0.7290E-14  0.1600E+01
     29.188  0.0000E+00  0.1600E+01
     29.315  0.0000E+00  0.1600E+01
     29.443  0.0000E+00  0.1600E+01
     29.570  0.0000E+00  0.1600E+01
     29.697  0.0000E+00  0.1600E+01
     29.824  0.0000E+00  0.1600E+01
     29.951  0.0000E+00  0.1600E+01
     30.078  0.0000E+00  0.1600E+01
     30.205  0.0000E+00  0.1600E+01
