       N       E                     dE             d eps       ncg     rms          rms(c)
DAV:   1    -0.209497921397E+01   -0.20950E+01   -0.31583E+03  3856   0.383E+02
DAV:   2    -0.109487608697E+02   -0.88538E+01   -0.87550E+01  5632   0.354E+01
DAV:   3    -0.110050713116E+02   -0.56310E-01   -0.56310E-01  4304   0.353E+00
DAV:   4    -0.110052298407E+02   -0.15853E-03   -0.15853E-03  7104   0.207E-01
DAV:   5    -0.110052298566E+02   -0.15875E-07   -0.15876E-07  4256   0.143E-03    0.292E+00
DAV:   6    -0.108963225539E+02    0.10891E+00   -0.70491E-02  5408   0.692E-01    0.173E+00
DAV:   7    -0.108451774816E+02    0.51145E-01   -0.13287E-01  5648   0.101E+00    0.144E-01
DAV:   8    -0.108464647769E+02   -0.12873E-02   -0.30881E-03  4544   0.210E-01    0.257E-02
DAV:   9    -0.108465692935E+02   -0.10452E-03   -0.95955E-05  6848   0.407E-02    0.126E-02
DAV:  10    -0.108465861165E+02   -0.16823E-04   -0.22153E-05  4688   0.189E-02    0.211E-03
DAV:  11    -0.108465852953E+02    0.82114E-06   -0.92606E-07  6672   0.312E-03
   1 F= -.10846585E+02 E0= -.10846585E+02  d E =-.108466E+02
       N       E                     dE             d eps       ncg     rms          rms(c)
DAV:   1    -0.108529572719E+02   -0.63712E-02   -0.17003E-01  4544   0.118E+00    0.262E-01
DAV:   2    -0.108500888582E+02    0.28684E-02   -0.20542E-03  4560   0.171E-01    0.150E-01
DAV:   3    -0.108486383044E+02    0.14506E-02   -0.30762E-03  4720   0.143E-01    0.193E-02
DAV:   4    -0.108486412432E+02   -0.29387E-05   -0.25520E-05  5104   0.240E-02    0.360E-03
DAV:   5    -0.108486428355E+02   -0.15923E-05   -0.54014E-07  6192   0.319E-03    0.846E-04
DAV:   6    -0.108486426443E+02    0.19118E-06   -0.14952E-07  4080   0.155E-03
   2 F= -.10848643E+02 E0= -.10848643E+02  d E =-.205735E-02
       N       E                     dE             d eps       ncg     rms          rms(c)
DAV:   1    -0.108505427241E+02   -0.18999E-02   -0.23966E-02  4544   0.441E-01    0.982E-02
DAV:   2    -0.108501308536E+02    0.41187E-03   -0.29355E-04  4528   0.648E-02    0.561E-02
DAV:   3    -0.108499154503E+02    0.21540E-03   -0.43744E-04  4720   0.537E-02    0.723E-03
DAV:   4    -0.108499124088E+02    0.30415E-05   -0.36396E-06  5120   0.903E-03    0.142E-03
DAV:   5    -0.108499119587E+02    0.45016E-06   -0.85080E-08  4512   0.125E-03
   3 F= -.10849912E+02 E0= -.10849912E+02  d E =-.332666E-02
       N       E                     dE             d eps       ncg     rms          rms(c)
DAV:   1    -0.108499121731E+02    0.23577E-06   -0.10934E-06  3680   0.295E-03    0.628E-04
DAV:   2    -0.108499121420E+02    0.31074E-07   -0.18865E-08  2032   0.545E-04    0.357E-04
DAV:   3    -0.108499120979E+02    0.44065E-07   -0.17808E-08  2064   0.371E-04    0.477E-05
DAV:   4    -0.108499120823E+02    0.15641E-07   -0.60130E-10  1952   0.120E-04
   4 F= -.10849912E+02 E0= -.10849912E+02  d E =-.332679E-02
