Silicon                                 
   5.80000000000000     
     0.000000    0.500000    0.500000
     0.500000    0.000000    0.500000
     0.500000    0.500000    0.000000
   Si
     2
Direct
  0.875000  0.875000  0.875000
  0.125000  0.125000  0.125000
 
   48   48   48
  22.661      22.669      22.685      22.677      22.605      22.414      22.024      21.395      20.562      19.639    
  18.790      18.192      17.976      18.192      18.790      19.639      20.562      21.395      22.024      22.414    
  22.605      22.677      22.685      22.669      22.661      22.669      22.685      22.677      22.605      22.414    
  22.024      21.395      20.562      19.639      18.790      18.192      17.976      18.192      18.790      19.639    
  20.562      21.395      22.024      22.414      22.605      22.677      22.685      22.669      22.669      22.925    
  23.153      23.303      23.302      23.032      22.416      21.469      20.303      19.113      18.137      17.587    
  17.587      18.137      19.113      20.303      21.469      22.416      23.032      23.302      23.303      23.153    
  22.925      22.669      22.420      22.192      21.981      21.762      21.499      21.157      20.695      20.097    
  19.405      18.719      18.163      17.852      17.852      18.163      18.719      19.405      20.097      20.695    
  21.157      21.499      21.762      21.981      22.192      22.420      22.685      23.153      23.542      23.763    
  23.660      23.120      22.118      20.745      19.209      17.795      16.797      16.436      16.797      17.795    
  19.209      20.745      22.118      23.120      23.660      23.763      23.542      23.153      22.685      22.192    
  21.716      21.274      20.866      20.472      20.063      19.615      19.117      18.572      18.021      17.538    
  17.205      17.086      17.205      17.538      18.021      18.572      19.117      19.615      20.063      20.472    
  20.866      21.274      21.716      22.192      22.677      23.303      23.763      23.874      23.480      22.507    
  21.010      19.179      17.323      15.806      14.951      14.951      15.806      17.323      19.179      21.010    
  22.507      23.480      23.874      23.763      23.303      22.677      21.981      21.274      20.600      19.982    
  19.419      18.896      18.389      17.883      17.377      16.891      16.460      16.132      15.953      15.953    
  16.132      16.460      16.891      17.377      17.883      18.389      18.896      19.419      19.982      20.600    
  21.274      21.981      22.605      23.302      23.660      23.480      22.637      21.132      19.116      16.890    
  14.856      13.425      12.910      13.425      14.856      16.890      19.116      21.132      22.637      23.480    
  23.660      23.302      22.605      21.762      20.866      19.982      19.153      18.403      17.733      17.129    
  16.571      16.049      15.565      15.140      14.804      14.586      14.511      14.586      14.804      15.140    
  15.565      16.049      16.571      17.129      17.733      18.403      19.153      19.982      20.866      21.762    
  22.414      23.032      23.120      22.507      21.132      19.087      16.634      14.176      12.178      11.056    
  11.056      12.178      14.176      16.634      19.087      21.132      22.507      23.120      23.032      22.414    
  21.499      20.472      19.419      18.403      17.470      16.639      15.910      15.268      14.698      14.192    
  13.753      13.397      13.143      13.012      13.012      13.143      13.397      13.753      14.192      14.698    
  15.268      15.910      16.639      17.470      18.403      19.419      20.472      21.499      22.024      22.416    
  22.118      21.010      19.116      16.634      13.929      11.477      9.7609      9.1439      9.7609      11.477    
  13.929      16.634      19.116      21.010      22.118      22.416      22.024      21.157      20.063      18.896    
  17.733      16.639      15.652      14.788      14.042      13.401      12.849      12.380      11.997      11.711    
  11.533      11.473      11.533      11.711      11.997      12.380      12.849      13.401      14.042      14.788    
  15.652      16.639      17.733      18.896      20.063      21.157      21.395      21.469      20.745      19.179    
  16.890      14.176      11.477      9.2962      8.0759      8.0759      9.2962      11.477      14.176      16.890    
  19.179      20.745      21.469      21.395      20.695      19.615      18.389      17.129      15.910      14.788    
  13.796      12.940      12.214      11.601      11.088      10.670      10.349      10.129      10.017      10.017    
  10.129      10.349      10.670      11.088      11.601      12.214      12.940      13.796      14.788      15.910    
  17.129      18.389      19.615      20.695      20.562      20.303      19.209      17.323      14.856      12.178    
  9.7609      8.0759      7.4713      8.0759      9.7609      12.178      14.856      17.323      19.209      20.303    
  20.562      20.097      19.117      17.883      16.571      15.268      14.042      12.940      11.983      11.169    
  10.488      9.9232      9.4635      9.1038      8.8442      8.6869      8.6342      8.6869      8.8442      9.1038    
  9.4635      9.9232      10.488      11.169      11.983      12.940      14.042      15.268      16.571      17.883    
  19.117      20.097      19.639      19.113      17.795      15.806      13.425      11.056      9.1439      8.0759    
  8.0759      9.1439      11.056      13.425      15.806      17.795      19.113      19.639      19.405      18.572    
  17.377      16.049      14.698      13.401      12.214      11.169      10.277      9.5287      8.9098      8.4057    
  8.0068      7.7083      7.5092      7.4094      7.4094      7.5091      7.7083      8.0068      8.4057      8.9098    
  9.5287      10.277      11.169      12.214      13.401      14.698      16.049      17.377      18.572      19.405    
  18.790      18.137      16.797      14.951      12.910      11.056      9.7609      9.2962      9.7609      11.056    
  12.910      14.951      16.797      18.137      18.790      18.719      18.021      16.891      15.565      14.192    
  12.849      11.601      10.488      9.5287      8.7206      8.0511      7.5043      7.0676      6.7326      6.4952    
  6.3535      6.3063      6.3535      6.4952      6.7326      7.0676      7.5043      8.0511      8.7206      9.5287    
  10.488      11.601      12.849      14.192      15.565      16.891      18.021      18.719      18.192      17.587    
  16.436      14.951      13.425      12.178      11.477      11.477      12.178      13.425      14.951      16.436    
  17.587      18.192      18.163      17.538      16.460      15.140      13.753      12.380      11.088      9.9232    
  8.9098      8.0511      7.3369      6.7516      6.2804      5.9126      5.6413      5.4624      5.3737      5.3737    
  5.4624      5.6413      5.9126      6.2804      6.7516      7.3369      8.0511      8.9098      9.9232      11.088    
  12.380      13.753      15.140      16.460      17.538      18.163      17.976      17.587      16.797      15.806    
  14.856      14.176      13.929      14.176      14.856      15.806      16.797      17.587      17.976      17.852    
  17.205      16.132      14.804      13.397      11.997      10.670      9.4635      8.4057      7.5043      6.7516    
  6.1324      5.6309      5.2341      4.9333      4.7224      4.5976      4.5563      4.5976      4.7224      4.9333    
  5.2341      5.6309      6.1324      6.7516      7.5043      8.4057      9.4635      10.670      11.997      13.397    
  14.804      16.132      17.205      17.852      18.192      18.137      17.795      17.323      16.890      16.634    
  16.634      16.890      17.323      17.795      18.137      18.192      17.852      17.086      15.953      14.586    
  13.143      11.711      10.349      9.1038      8.0068      7.0675      6.2804      5.6309      5.1023      4.6800    
  4.3535      4.1151      3.9594      3.8826      3.8826      3.9594      4.1151      4.3535      4.6800      5.1023    
  5.6309      6.2804      7.0676      8.0068      9.1038      10.349      11.711      13.143      14.586      15.953    
  17.086      17.852      18.790      19.113      19.209      19.179      19.116      19.087      19.116      19.179    
  19.209      19.113      18.790      18.163      17.205      15.953      14.511      13.012      11.533      10.129    
  8.8442      7.7083      6.7326      5.9126      5.2341      4.6800      4.2344      3.8848      3.6222      3.4400    
  3.3329      3.2976      3.3329      3.4400      3.6222      3.8848      4.2344      4.6800      5.2341      5.9126    
  6.7326      7.7083      8.8442      10.129      11.533      13.012      14.511      15.953      17.205      18.163    
  19.639      20.303      20.745      21.010      21.132      21.132      21.010      20.745      20.303      19.639    
  18.719      17.538      16.132      14.586      13.012      11.473      10.017      8.6869      7.5092      6.4952    
  5.6413      4.9333      4.3535      3.8848      3.5133      3.2286      3.0228      2.8896      2.8244      2.8244    
  2.8896      3.0228      3.2286      3.5133      3.8848      4.3535      4.9333      5.6413      6.4952      7.5091    
  8.6869      10.017      11.473      13.012      14.586      16.132      17.538      18.719      20.562      21.469    
  22.118      22.507      22.637      22.507      22.118      21.469      20.562      19.405      18.021      16.460    
  14.804      13.143      11.533      10.017      8.6342      7.4094      6.3535      5.4624      4.7224      4.1151    
  3.6222      3.2286      2.9225      2.6948      2.5383      2.4470      2.4171      2.4470      2.5383      2.6948    
  2.9225      3.2286      3.6222      4.1151      4.7224      5.4624      6.3535      7.4094      8.6342      10.017    
  11.533      13.143      14.804      16.460      18.021      19.405      21.395      22.416      23.120      23.480    
  23.480      23.120      22.416      21.395      20.097      18.572      16.891      15.140      13.397      11.711    
  10.129      8.6869      7.4094      6.3063      5.3737      4.5976      3.9594      3.4400      3.0228      2.6948    
  2.4458      2.2674      2.1528      2.0970      2.0970      2.1528      2.2674      2.4458      2.6948      3.0228    
  3.4400      3.9594      4.5976      5.3737      6.3063      7.4094      8.6869      10.129      11.711      13.397    
  15.140      16.891      18.572      20.097      22.024      23.032      23.660      23.874      23.660      23.032    
  22.024      20.695      19.117      17.377      15.565      13.753      11.997      10.349      8.8442      7.5092    
  6.3535      5.3737      4.5563      3.8826      3.3329      2.8896      2.5383      2.2674      2.0676      1.9313    
  1.8523      1.8264      1.8523      1.9313      2.0676      2.2674      2.5383      2.8896      3.3329      3.8826    
  4.5563      5.3737      6.3535      7.5092      8.8442      10.349      11.997      13.753      15.565      17.377    
  19.117      20.695      22.414      23.302      23.763      23.763      23.302      22.414      21.157      19.615    
  17.883      16.049      14.192      12.380      10.670      9.1038      7.7083      6.4952      5.4624      4.5976    
  3.8826      3.2976      2.8244      2.4470      2.1528      1.9313      1.7737      1.6730      1.6241      1.6241    
  1.6730      1.7737      1.9313      2.1528      2.4470      2.8244      3.2976      3.8826      4.5976      5.4624    
  6.4952      7.7083      9.1038      10.670      12.380      14.192      16.049      17.883      19.615      21.157    
  22.605      23.303      23.542      23.303      22.605      21.499      20.063      18.389      16.571      14.698    
  12.849      11.088      9.4635      8.0068      6.7326      5.6413      4.7224      3.9594      3.3329      2.8244    
  2.4171      2.0970      1.8523      1.6730      1.5513      1.4808      1.4578      1.4808      1.5513      1.6730    
  1.8523      2.0970      2.4171      2.8244      3.3329      3.9594      4.7224      5.6413      6.7326      8.0068    
  9.4635      11.088      12.849      14.698      16.571      18.389      20.063      21.499      22.677      23.153    
  23.153      22.677      21.762      20.472      18.896      17.129      15.268      13.401      11.601      9.9232    
  8.4057      7.0675      5.9126      4.9333      4.1151      3.4400      2.8896      2.4470      2.0970      1.8264    
  1.6241      1.4808      1.3895      1.3450      1.3450      1.3895      1.4808      1.6241      1.8264      2.0970    
  2.4470      2.8896      3.4400      4.1151      4.9333      5.9126      7.0676      8.4057      9.9232      11.601    
  13.401      15.268      17.129      18.896      20.472      21.762      22.685      22.925      22.685      21.981    
  20.866      19.419      17.733      15.910      14.042      12.214      10.488      8.9098      7.5043      6.2804    
  5.2341      4.3535      3.6222      3.0228      2.5383      2.1528      1.8523      1.6241      1.4578      1.3450    
  1.2798      1.2584      1.2798      1.3450      1.4578      1.6241      1.8523      2.1528      2.5383      3.0228    
  3.6222      4.3535      5.2341      6.2804      7.5043      8.9098      10.488      12.214      14.042      15.910    
  17.733      19.419      20.866      21.981      22.669      22.669      22.192      21.274      19.982      18.403    
  16.639      14.788      12.940      11.169      9.5287      8.0511      6.7516      5.6309      4.6800      3.8848    
  3.2286      2.6948      2.2674      1.9313      1.6730      1.4808      1.3450      1.2584      1.2163      1.2163    
  1.2584      1.3450      1.4808      1.6730      1.9313      2.2674      2.6948      3.2286      3.8848      4.6800    
  5.6309      6.7516      8.0511      9.5287      11.169      12.940      14.788      16.639      18.403      19.982    
  21.274      22.192      22.661      22.420      21.716      20.600      19.153      17.470      15.652      13.796    
  11.983      10.277      8.7206      7.3369      6.1324      5.1023      4.2344      3.5133      2.9225      2.4458    
  2.0676      1.7737      1.5513      1.3895      1.2798      1.2163      1.1955      1.2163      1.2798      1.3895    
  1.5513      1.7737      2.0676      2.4458      2.9225      3.5133      4.2344      5.1023      6.1324      7.3369    
  8.7206      10.277      11.983      13.796      15.652      17.470      19.153      20.600      21.716      22.420    
  22.669      22.192      21.274      19.982      18.403      16.639      14.788      12.940      11.169      9.5287    
  8.0511      6.7516      5.6309      4.6800      3.8848      3.2286      2.6948      2.2674      1.9313      1.6730    
  1.4808      1.3450      1.2584      1.2163      1.2163      1.2584      1.3450      1.4808      1.6730      1.9313    
  2.2674      2.6948      3.2286      3.8848      4.6800      5.6309      6.7516      8.0511      9.5287      11.169    
  12.940      14.788      16.639      18.403      19.982      21.274      22.192      22.669      22.685      21.981    
  20.866      19.419      17.733      15.910      14.042      12.214      10.488      8.9098      7.5043      6.2804    
  5.2341      4.3535      3.6222      3.0228      2.5383      2.1528      1.8523      1.6241      1.4578      1.3450    
  1.2798      1.2584      1.2798      1.3450      1.4578      1.6241      1.8523      2.1528      2.5383      3.0228    
  3.6222      4.3535      5.2341      6.2804      7.5043      8.9098      10.488      12.214      14.042      15.910    
  17.733      19.419      20.866      21.981      22.685      22.925      22.677      21.762      20.472      18.896    
  17.129      15.268      13.401      11.601      9.9232      8.4057      7.0676      5.9126      4.9333      4.1151    
  3.4400      2.8896      2.4470      2.0970      1.8264      1.6241      1.4808      1.3895      1.3450      1.3450    
  1.3895      1.4808      1.6241      1.8264      2.0970      2.4470      2.8896      3.4400      4.1151      4.9333    
  5.9126      7.0675      8.4057      9.9232      11.601      13.401      15.268      17.129      18.896      20.472    
  21.762      22.677      23.153      23.153      22.605      21.499      20.063      18.389      16.571      14.698    
  12.849      11.088      9.4635      8.0068      6.7326      5.6413      4.7224      3.9594      3.3329      2.8244    
  2.4171      2.0970      1.8523      1.6730      1.5513      1.4808      1.4578      1.4808      1.5513      1.6730    
  1.8523      2.0970      2.4171      2.8244      3.3329      3.9594      4.7224      5.6413      6.7326      8.0068    
  9.4635      11.088      12.849      14.698      16.571      18.389      20.063      21.499      22.605      23.303    
  23.542      23.303      22.414      21.157      19.615      17.883      16.049      14.192      12.380      10.670    
  9.1038      7.7083      6.4952      5.4624      4.5976      3.8826      3.2976      2.8244      2.4470      2.1528    
  1.9313      1.7737      1.6730      1.6241      1.6241      1.6730      1.7737      1.9313      2.1528      2.4470    
  2.8244      3.2976      3.8826      4.5976      5.4624      6.4952      7.7083      9.1038      10.670      12.380    
  14.192      16.049      17.883      19.615      21.157      22.414      23.302      23.763      23.763      23.302    
  22.024      20.695      19.117      17.377      15.565      13.753      11.997      10.349      8.8442      7.5092    
  6.3535      5.3737      4.5563      3.8826      3.3329      2.8896      2.5383      2.2674      2.0676      1.9313    
  1.8523      1.8264      1.8523      1.9313      2.0676      2.2674      2.5383      2.8896      3.3329      3.8826    
  4.5563      5.3737      6.3535      7.5092      8.8442      10.349      11.997      13.753      15.565      17.377    
  19.117      20.695      22.024      23.032      23.660      23.874      23.660      23.032      21.395      20.097    
  18.572      16.891      15.140      13.397      11.711      10.129      8.6869      7.4094      6.3063      5.3737    
  4.5976      3.9594      3.4400      3.0228      2.6948      2.4458      2.2674      2.1528      2.0970      2.0970    
  2.1528      2.2674      2.4458      2.6948      3.0228      3.4400      3.9594      4.5976      5.3737      6.3063    
  7.4094      8.6869      10.129      11.711      13.397      15.140      16.891      18.572      20.097      21.395    
  22.416      23.120      23.480      23.480      23.120      22.416      20.562      19.405      18.021      16.460    
  14.804      13.143      11.533      10.017      8.6342      7.4094      6.3535      5.4624      4.7224      4.1151    
  3.6222      3.2286      2.9225      2.6948      2.5383      2.4470      2.4171      2.4470      2.5383      2.6948    
  2.9225      3.2286      3.6222      4.1151      4.7224      5.4624      6.3535      7.4094      8.6342      10.017    
  11.533      13.143      14.804      16.460      18.021      19.405      20.562      21.469      22.118      22.507    
  22.637      22.507      22.118      21.469      19.639      18.719      17.538      16.132      14.586      13.012    
  11.473      10.017      8.6869      7.5091      6.4952      5.6413      4.9333      4.3535      3.8848      3.5133    
  3.2286      3.0228      2.8896      2.8244      2.8244      2.8896      3.0228      3.2286      3.5133      3.8848    
  4.3535      4.9333      5.6413      6.4952      7.5092      8.6869      10.017      11.473      13.012      14.586    
  16.132      17.538      18.719      19.639      20.303      20.745      21.010      21.132      21.132      21.010    
  20.745      20.303      18.790      18.163      17.205      15.953      14.511      13.012      11.533      10.129    
  8.8442      7.7083      6.7326      5.9126      5.2341      4.6800      4.2344      3.8848      3.6222      3.4400    
  3.3329      3.2976      3.3329      3.4400      3.6222      3.8848      4.2344      4.6800      5.2341      5.9126    
  6.7326      7.7083      8.8442      10.129      11.533      13.012      14.511      15.953      17.205      18.163    
  18.790      19.113      19.209      19.179      19.116      19.087      19.116      19.179      19.209      19.113    
  18.192      17.852      17.086      15.953      14.586      13.143      11.711      10.349      9.1038      8.0068    
  7.0676      6.2804      5.6309      5.1023      4.6800      4.3535      4.1151      3.9594      3.8826      3.8826    
  3.9594      4.1151      4.3535      4.6800      5.1023      5.6309      6.2804      7.0675      8.0068      9.1038    
  10.349      11.711      13.143      14.586      15.953      17.086      17.852      18.192      18.137      17.795    
  17.323      16.890      16.634      16.634      16.890      17.323      17.795      18.137      17.976      17.852    
  17.205      16.132      14.804      13.397      11.997      10.670      9.4635      8.4057      7.5043      6.7516    
  6.1324      5.6309      5.2341      4.9333      4.7224      4.5976      4.5563      4.5976      4.7224      4.9333    
  5.2341      5.6309      6.1324      6.7516      7.5043      8.4057      9.4635      10.670      11.997      13.397    
  14.804      16.132      17.205      17.852      17.976      17.587      16.797      15.806      14.856      14.176    
  13.929      14.176      14.856      15.806      16.797      17.587      18.192      18.163      17.538      16.460    
  15.140      13.753      12.380      11.088      9.9232      8.9098      8.0511      7.3369      6.7516      6.2804    
  5.9126      5.6413      5.4624      5.3737      5.3737      5.4624      5.6413      5.9126      6.2804      6.7516    
  7.3369      8.0511      8.9098      9.9232      11.088      12.380      13.753      15.140      16.460      17.538    
  18.163      18.192      17.587      16.436      14.951      13.425      12.178      11.477      11.477      12.178    
  13.425      14.951      16.436      17.587      18.790      18.719      18.021      16.891      15.565      14.192    
  12.849      11.601      10.488      9.5287      8.7206      8.0511      7.5043      7.0676      6.7326      6.4952    
  6.3535      6.3063      6.3535      6.4952      6.7326      7.0676      7.5043      8.0511      8.7206      9.5287    
  10.488      11.601      12.849      14.192      15.565      16.891      18.021      18.719      18.790      18.137    
  16.797      14.951      12.910      11.056      9.7609      9.2962      9.7609      11.056      12.910      14.951    
  16.797      18.137      19.639      19.405      18.572      17.377      16.049      14.698      13.401      12.214    
  11.169      10.277      9.5287      8.9098      8.4057      8.0068      7.7083      7.5091      7.4094      7.4094    
  7.5092      7.7083      8.0068      8.4057      8.9098      9.5287      10.277      11.169      12.214      13.401    
  14.698      16.049      17.377      18.572      19.405      19.639      19.113      17.795      15.806      13.425    
  11.056      9.1439      8.0759      8.0759      9.1439      11.056      13.425      15.806      17.795      19.113    
  20.562      20.097      19.117      17.883      16.571      15.268      14.042      12.940      11.983      11.169    
  10.488      9.9232      9.4635      9.1038      8.8442      8.6869      8.6342      8.6869      8.8442      9.1038    
  9.4635      9.9232      10.488      11.169      11.983      12.940      14.042      15.268      16.571      17.883    
  19.117      20.097      20.562      20.303      19.209      17.323      14.856      12.178      9.7609      8.0759    
  7.4713      8.0759      9.7609      12.178      14.856      17.323      19.209      20.303      21.395      20.695    
  19.615      18.389      17.129      15.910      14.788      13.796      12.940      12.214      11.601      11.088    
  10.670      10.349      10.129      10.017      10.017      10.129      10.349      10.670      11.088      11.601    
  12.214      12.940      13.796      14.788      15.910      17.129      18.389      19.615      20.695      21.395    
  21.469      20.745      19.179      16.890      14.176      11.477      9.2962      8.0759      8.0759      9.2962    
  11.477      14.176      16.890      19.179      20.745      21.469      22.024      21.157      20.063      18.896    
  17.733      16.639      15.652      14.788      14.042      13.401      12.849      12.380      11.997      11.711    
  11.533      11.473      11.533      11.711      11.997      12.380      12.849      13.401      14.042      14.788    
  15.652      16.639      17.733      18.896      20.063      21.157      22.024      22.416      22.118      21.010    
  19.116      16.634      13.929      11.477      9.7609      9.1439      9.7609      11.477      13.929      16.634    
  19.116      21.010      22.118      22.416      22.414      21.499      20.472      19.419      18.403      17.470    
  16.639      15.910      15.268      14.698      14.192      13.753      13.397      13.143      13.012      13.012    
  13.143      13.397      13.753      14.192      14.698      15.268      15.910      16.639      17.470      18.403    
  19.419      20.472      21.499      22.414      23.032      23.120      22.507      21.132      19.087      16.634    
  14.176      12.178      11.056      11.056      12.178      14.176      16.634      19.087      21.132      22.507    
  23.120      23.032      22.605      21.762      20.866      19.982      19.153      18.403      17.733      17.129    
  16.571      16.049      15.565      15.140      14.804      14.586      14.511      14.586      14.804      15.140    
  15.565      16.049      16.571      17.129      17.733      18.403      19.153      19.982      20.866      21.762    
  22.605      23.302      23.660      23.480      22.637      21.132      19.116      16.890      14.856      13.425    
  12.910      13.425      14.856      16.890      19.116      21.132      22.637      23.480      23.660      23.302    
  22.677      21.981      21.274      20.600      19.982      19.419      18.896      18.389      17.883      17.377    
  16.891      16.460      16.132      15.953      15.953      16.132      16.460      16.891      17.377      17.883    
  18.389      18.896      19.419      19.982      20.600      21.274      21.981      22.677      23.303      23.763    
  23.874      23.480      22.507      21.010      19.179      17.323      15.806      14.951      14.951      15.806    
  17.323      19.179      21.010      22.507      23.480      23.874      23.763      23.303      22.685      22.192    
  21.716      21.274      20.866      20.472      20.063      19.615      19.117      18.572      18.021      17.538    
  17.205      17.086      17.205      17.538      18.021      18.572      19.117      19.615      20.063      20.472    
  20.866      21.274      21.716      22.192      22.685      23.153      23.542      23.763      23.660      23.120    
  22.118      20.745      19.209      17.795      16.797      16.436      16.797      17.795      19.209      20.745    
  22.118      23.120      23.660      23.763      23.542      23.153      22.669      22.420      22.192      21.981    
  21.762      21.499      21.157      20.695      20.097      19.405      18.719      18.163      17.852      17.852    
  18.163      18.719      19.405      20.097      20.695      21.157      21.499      21.762      21.981      22.192    
  22.420      22.669      22.925      23.153      23.303      23.302      23.032      22.416      21.469      20.303    
  19.113      18.137      17.587      17.587      18.137      19.113      20.303      21.469      22.416      23.032    
  23.302      23.303      23.153      22.925      22.669      22.925      23.153      23.303      23.302      23.032    
  22.416      21.469      20.303      19.113      18.137      17.587      17.587      18.137      19.113      20.303    
  21.469      22.416      23.032      23.302      23.303      23.153      22.925      22.669      22.420      22.192    
  21.981      21.762      21.499      21.157      20.695      20.097      19.405      18.719      18.163      17.852    
  17.852      18.163      18.719      19.405      20.097      20.695      21.157      21.499      21.762      21.981    
  22.192      22.420      22.925      23.397      23.788      24.003      23.886      23.319      22.279      20.860    
  19.275      17.817      16.788      16.417      16.788      17.817      19.275      20.860      22.279      23.319    
  23.886      24.003      23.788      23.397      22.925      22.429      21.947      21.500      21.086      20.685    
  20.269      19.813      19.304      18.745      18.179      17.683      17.341      17.218      17.341      17.683    
  18.179      18.745      19.304      19.813      20.269      20.685      21.086      21.500      21.947      22.429    
  23.153      23.788      24.243      24.327      23.877      22.821      21.217      19.266      17.294      15.683    
  14.776      14.776      15.683      17.294      19.266      21.217      22.821      23.877      24.327      24.243    
  23.788      23.153      22.446      21.726      21.038      20.404      19.825      19.286      18.763      18.240    
  17.716      17.211      16.760      16.416      16.229      16.229      16.416      16.760      17.211      17.716    
  18.240      18.763      19.286      19.825      20.404      21.038      21.726      22.446      23.303      24.003    