Silicon                                 
   5.80000000000000     
     0.000000    0.500000    0.500000
     0.500000    0.000000    0.500000
     0.500000    0.500000    0.000000
   Si
     2
Direct
  0.875000  0.875000  0.875000
  0.125000  0.125000  0.125000
 
   48   48   48
 0.22660531803E+02 0.22669188134E+02 0.22684681375E+02 0.22677456255E+02 0.22604832766E+02
 0.22413755034E+02 0.22024445586E+02 0.21395355710E+02 0.20562328840E+02 0.19638622098E+02
 0.18790328358E+02 0.18192135785E+02 0.17976321014E+02 0.18192135739E+02 0.18790328217E+02
 0.19638621898E+02 0.20562328761E+02 0.21395355869E+02 0.22024445879E+02 0.22413755180E+02
 0.22604832624E+02 0.22677455980E+02 0.22684681231E+02 0.22669188265E+02 0.22660532062E+02
 0.22669188265E+02 0.22684681231E+02 0.22677455980E+02 0.22604832624E+02 0.22413755180E+02
 0.22024445879E+02 0.21395355869E+02 0.20562328761E+02 0.19638621898E+02 0.18790328217E+02
 0.18192135739E+02 0.17976321014E+02 0.18192135785E+02 0.18790328358E+02 0.19638622098E+02
 0.20562328840E+02 0.21395355710E+02 0.22024445586E+02 0.22413755034E+02 0.22604832766E+02
 0.22677456255E+02 0.22684681375E+02 0.22669188134E+02 0.22669188134E+02 0.22925344683E+02
 0.23153282146E+02 0.23303431027E+02 0.23302263974E+02 0.23031661445E+02 0.22416397907E+02
 0.21469173868E+02 0.20302614362E+02 0.19113337901E+02 0.18137351943E+02 0.17586637336E+02
 0.17586635449E+02 0.18137348847E+02 0.19113338028E+02 0.20302618518E+02 0.21469178565E+02
 0.22416399735E+02 0.23031660493E+02 0.23302262519E+02 0.23303430464E+02 0.23153282262E+02
 0.22925344918E+02 0.22669188310E+02 0.22419705836E+02 0.22192196770E+02 0.21980927091E+02
 0.21761664388E+02 0.21499010103E+02 0.21157291437E+02 0.20695394430E+02 0.20096518969E+02
 0.19405082691E+02 0.18719147823E+02 0.18163377575E+02 0.17851659045E+02 0.17851657188E+02
 0.18163373812E+02 0.18719145920E+02 0.19405084841E+02 0.20096523723E+02 0.20695398224E+02
 0.21157292165E+02 0.21499008708E+02 0.21761663129E+02 0.21980926919E+02 0.22192197052E+02
 0.22419705896E+02 0.22684681375E+02 0.23153282146E+02 0.23542454134E+02 0.23762518635E+02
 0.23660462879E+02 0.23120403266E+02 0.22117914295E+02 0.20745299943E+02 0.19209458498E+02
 0.17795108591E+02 0.16796630756E+02 0.16436220818E+02 0.16796631237E+02 0.17795109043E+02
 0.19209458476E+02 0.20745299547E+02 0.22117914028E+02 0.23120403456E+02 0.23660463424E+02
 0.23762519245E+02 0.23542454649E+02 0.23153282558E+02 0.22684681606E+02 0.22192197001E+02
 0.21715508536E+02 0.21274081601E+02 0.20866112542E+02 0.20472051886E+02 0.20063392615E+02
 0.19615489401E+02 0.19117356193E+02 0.18572129992E+02 0.18020986718E+02 0.17537840646E+02
 0.17205059072E+02 0.17086201442E+02 0.17205059227E+02 0.17537840759E+02 0.18020986586E+02
 0.18572129654E+02 0.19117355956E+02 0.19615489536E+02 0.20063393103E+02 0.20472052515E+02
 0.20866113124E+02 0.21274082088E+02 0.21715508861E+02 0.22192197052E+02 0.22677456255E+02
 0.23303431027E+02 0.23762518635E+02 0.23874303251E+02 0.23479748419E+02 0.22507195765E+02
 0.21009664506E+02 0.19178814837E+02 0.17323186795E+02 0.15805645514E+02 0.14950792733E+02
 0.14950792651E+02 0.15805644785E+02 0.17323184554E+02 0.19178811188E+02 0.21009661191E+02
 0.22507194914E+02 0.23479750293E+02 0.23874305827E+02 0.23762519819E+02 0.23303430807E+02
 0.22677456157E+02 0.21980927655E+02 0.21274082608E+02 0.20600234798E+02 0.19981570813E+02
 0.19418702816E+02 0.18895526459E+02 0.18389267515E+02 0.17883120602E+02 0.17377024599E+02
 0.16891073747E+02 0.16459923470E+02 0.16131757516E+02 0.15953447622E+02 0.15953448799E+02
 0.16131760355E+02 0.16459926049E+02 0.16891073868E+02 0.17377021523E+02 0.17883116037E+02
 0.18389264417E+02 0.18895526573E+02 0.19418705424E+02 0.19981573628E+02 0.20600235954E+02
 0.21274082088E+02 0.21980926919E+02 0.22604832766E+02 0.23302263974E+02 0.23660462879E+02
 0.23479748419E+02 0.22636965644E+02 0.21131860925E+02 0.19116052910E+02 0.16889984259E+02
 0.14855521121E+02 0.13425093769E+02 0.12909667392E+02 0.13425093981E+02 0.14855521488E+02
 0.16889984418E+02 0.19116052533E+02 0.21131860292E+02 0.22636965399E+02 0.23479748718E+02
 0.23660463361E+02 0.23302264442E+02 0.22604833274E+02 0.21761663512E+02 0.20866113039E+02
 0.19981573182E+02 0.19153088406E+02 0.18403339424E+02 0.17733313284E+02 0.17128762694E+02
 0.16571067924E+02 0.16048781806E+02 0.15565397155E+02 0.15140393435E+02 0.14803669902E+02
 0.14586235471E+02 0.14510947011E+02 0.14586235176E+02 0.14803669782E+02 0.15140393616E+02
 0.15565397279E+02 0.16048781715E+02 0.16571067841E+02 0.17128762710E+02 0.17733313273E+02
 0.18403339468E+02 0.19153088735E+02 0.19981573628E+02 0.20866113124E+02 0.21761663129E+02
 0.22413755034E+02 0.23031661445E+02 0.23120403266E+02 0.22507195765E+02 0.21131860925E+02
 0.19087283929E+02 0.16634423868E+02 0.14175600996E+02 0.12177512446E+02 0.11055668248E+02
 0.11055673054E+02 0.12177521521E+02 0.14175605767E+02 0.16634423434E+02 0.19087283455E+02
 0.21131862029E+02 0.22507195111E+02 0.23120400217E+02 0.23031660339E+02 0.22413757766E+02
 0.21499010886E+02 0.20472050609E+02 0.19418703063E+02 0.18403341806E+02 0.17469982678E+02
 0.16639013978E+02 0.15909638100E+02 0.15267972678E+02 0.14698072390E+02 0.14191639954E+02
 0.13752786984E+02 0.13396645884E+02 0.13143496995E+02 0.13011618490E+02 0.13011616842E+02
 0.13143494202E+02 0.13396644773E+02 0.13752786928E+02 0.14191639697E+02 0.14698073870E+02
 0.15267977506E+02 0.15909642559E+02 0.16639012952E+02 0.17469977674E+02 0.18403339468E+02
 0.19418705424E+02 0.20472052515E+02 0.21499008708E+02 0.22024445586E+02 0.22416397907E+02
 0.22117914295E+02 0.21009664506E+02 0.19116052910E+02 0.16634423868E+02 0.13929273877E+02
 0.11476882729E+02 0.97608641525E+01 0.91439193069E+01 0.97608649711E+01 0.11476884036E+02
 0.13929274937E+02 0.16634424036E+02 0.19116052352E+02 0.21009664010E+02 0.22117914308E+02
 0.22416398140E+02 0.22024445682E+02 0.21157292183E+02 0.20063393220E+02 0.18895526703E+02
 0.17733313267E+02 0.16639012869E+02 0.15652179674E+02 0.14788086474E+02 0.14042437348E+02
 0.13400776736E+02 0.12848864541E+02 0.12380055315E+02 0.11997432281E+02 0.11711106607E+02
 0.11533120270E+02 0.11472665231E+02 0.11533120264E+02 0.11711106655E+02 0.11997432338E+02
 0.12380055263E+02 0.12848864388E+02 0.13400776602E+02 0.14042437273E+02 0.14788086432E+02
 0.15652179697E+02 0.16639012952E+02 0.17733313273E+02 0.18895526573E+02 0.20063393103E+02
 0.21157292165E+02 0.21395355710E+02 0.21469173868E+02 0.20745299943E+02 0.19178814837E+02
 0.16889984259E+02 0.14175600996E+02 0.11476882729E+02 0.92962066836E+01 0.80759257957E+01
 0.80759180677E+01 0.92961935369E+01 0.11476879223E+02 0.14175606108E+02 0.16889986166E+02
 0.19178811179E+02 0.20745299326E+02 0.21469178861E+02 0.21395358233E+02 0.20695394359E+02
 0.19615486588E+02 0.18389267670E+02 0.17128765571E+02 0.15909637965E+02 0.14788079985E+02
 0.13795670153E+02 0.12940419131E+02 0.12213770506E+02 0.11600558171E+02 0.11087902762E+02
 0.10670054971E+02 0.10348506460E+02 0.10128915836E+02 0.10017305330E+02 0.10017307908E+02
 0.10128919234E+02 0.10348505618E+02 0.10670053291E+02 0.11087905303E+02 0.11600560890E+02
 0.12213766098E+02 0.12940410723E+02 0.13795668366E+02 0.14788086432E+02 0.15909642559E+02
 0.17128762710E+02 0.18389264417E+02 0.19615489536E+02 0.20695398224E+02 0.20562328840E+02
 0.20302614362E+02 0.19209458498E+02 0.17323186795E+02 0.14855521121E+02 0.12177512446E+02
 0.97608641525E+01 0.80759257957E+01 0.74713353148E+01 0.80759256431E+01 0.97608640634E+01
 0.12177512655E+02 0.14855521638E+02 0.17323187355E+02 0.19209458832E+02 0.20302614508E+02
 0.20562329082E+02 0.20096524194E+02 0.19117356391E+02 0.17883116092E+02 0.16571067571E+02
 0.15267977277E+02 0.14042437238E+02 0.12940410622E+02 0.11982782171E+02 0.11169456926E+02
 0.10488016339E+02 0.99231642579E+01 0.94634719339E+01 0.91038145711E+01 0.88441755443E+01
 0.86868761527E+01 0.86341550121E+01 0.86868759760E+01 0.88441754035E+01 0.91038145589E+01
 0.94634719594E+01 0.99231643355E+01 0.10488016633E+02 0.11169457419E+02 0.11982782556E+02
 0.12940410723E+02 0.14042437273E+02 0.15267977506E+02 0.16571067841E+02 0.17883116037E+02
 0.19117355956E+02 0.20096523723E+02 0.19638622098E+02 0.19113337901E+02 0.17795108591E+02
 0.15805645514E+02 0.13425093769E+02 0.11055668248E+02 0.91439193069E+01 0.80759180677E+01
 0.80759256431E+01 0.91439323344E+01 0.11055672217E+02 0.13425089667E+02 0.15805644514E+02
 0.17795112563E+02 0.19113338519E+02 0.19638617402E+02 0.19405083009E+02 0.18572134184E+02
 0.17377024941E+02 0.16048779094E+02 0.14698071749E+02 0.13400780945E+02 0.12213770398E+02
 0.11169452701E+02 0.10276910922E+02 0.95286544110E+01 0.89097606530E+01 0.84057400587E+01
 0.80068015583E+01 0.77083358895E+01 0.75091502916E+01 0.74094098378E+01 0.74094067061E+01
 0.75091463536E+01 0.77083376125E+01 0.80068045570E+01 0.84057370316E+01 0.89097555624E+01
 0.95286571847E+01 0.10276920480E+02 0.11169457419E+02 0.12213766098E+02 0.13400776602E+02
 0.14698073870E+02 0.16048781715E+02 0.17377021523E+02 0.18572129654E+02 0.19405084841E+02
 0.18790328358E+02 0.18137351943E+02 0.16796630756E+02 0.14950792733E+02 0.12909667392E+02
 0.11055673054E+02 0.97608649711E+01 0.92961935369E+01 0.97608640634E+01 0.11055672217E+02
 0.12909667323E+02 0.14950793115E+02 0.16796630961E+02 0.18137351931E+02 0.18790328526E+02
 0.18719146326E+02 0.18020986919E+02 0.16891073989E+02 0.15565397329E+02 0.14191639648E+02
 0.12848863992E+02 0.11600560200E+02 0.10488016136E+02 0.95286571891E+01 0.87206346610E+01
 0.80510676451E+01 0.75043223274E+01 0.70675508269E+01 0.67326018360E+01 0.64952402230E+01
 0.63534634523E+01 0.63063085555E+01 0.63534635473E+01 0.64952401411E+01 0.67326015529E+01
 0.70675506370E+01 0.75043223237E+01 0.80510675661E+01 0.87206344303E+01 0.95286571847E+01
 0.10488016633E+02 0.11600560890E+02 0.12848864388E+02 0.14191639697E+02 0.15565397279E+02
 0.16891073868E+02 0.18020986586E+02 0.18719145920E+02 0.18192135785E+02 0.17586637336E+02
 0.16436220818E+02 0.14950792651E+02 0.13425093981E+02 0.12177521521E+02 0.11476884036E+02
 0.11476879223E+02 0.12177512655E+02 0.13425089667E+02 0.14950793115E+02 0.16436220570E+02
 0.17586635563E+02 0.18192136682E+02 0.18163377691E+02 0.17537842506E+02 0.16459923520E+02
 0.15140390881E+02 0.13752786815E+02 0.12380054862E+02 0.11087902572E+02 0.99231634747E+01
 0.89097604156E+01 0.80510738507E+01 0.73368926738E+01 0.67515828863E+01 0.62804117568E+01
 0.59125656242E+01 0.56412543420E+01 0.54624333580E+01 0.53736522415E+01 0.53736544081E+01
 0.54624360506E+01 0.56412529131E+01 0.59125629940E+01 0.62804134600E+01 0.67515869656E+01
 0.73368920031E+01 0.80510675661E+01 0.89097555624E+01 0.99231643355E+01 0.11087905303E+02
 0.12380055263E+02 0.13752786928E+02 0.15140393616E+02 0.16459926049E+02 0.17537840759E+02
 0.18163373812E+02 0.17976321014E+02 0.17586635449E+02 0.16796631237E+02 0.15805644785E+02
 0.14855521488E+02 0.14175605767E+02 0.13929274937E+02 0.14175606108E+02 0.14855521638E+02
 0.15805644514E+02 0.16796630961E+02 0.17586635563E+02 0.17976321317E+02 0.17851657276E+02
 0.17205059135E+02 0.16131760365E+02 0.14803669825E+02 0.13396644526E+02 0.11997431861E+02
 0.10670053027E+02 0.94634720516E+01 0.84057371352E+01 0.75043222669E+01 0.67515870875E+01
 0.61324102478E+01 0.56308804977E+01 0.52341477258E+01 0.49332928191E+01 0.47224301453E+01
 0.45975895226E+01 0.45562707403E+01 0.45975893637E+01 0.47224301903E+01 0.49332930558E+01
 0.52341476656E+01 0.56308799665E+01 0.61324097204E+01 0.67515869656E+01 0.75043223237E+01
 0.84057370316E+01 0.94634719594E+01 0.10670053291E+02 0.11997432338E+02 0.13396644773E+02
 0.14803669782E+02 0.16131760355E+02 0.17205059227E+02 0.17851657188E+02 0.18192135739E+02
 0.18137348847E+02 0.17795109043E+02 0.17323184554E+02 0.16889984418E+02 0.16634423434E+02
 0.16634424036E+02 0.16889986166E+02 0.17323187355E+02 0.17795112563E+02 0.18137351931E+02
 0.18192136682E+02 0.17851657276E+02 0.17086198658E+02 0.15953447606E+02 0.14586236537E+02
 0.13143496796E+02 0.11711108624E+02 0.10348506047E+02 0.91038132559E+01 0.80068017089E+01
 0.70675474310E+01 0.62804119437E+01 0.56308810369E+01 0.51022540674E+01 0.46800422098E+01
 0.43534922622E+01 0.41150719789E+01 0.39593788901E+01 0.38825803934E+01 0.38825798231E+01
 0.39593781900E+01 0.41150724200E+01 0.43534930402E+01 0.46800415128E+01 0.51022520280E+01
 0.56308799665E+01 0.62804134600E+01 0.70675506370E+01 0.80068045570E+01 0.91038145589E+01
 0.10348505618E+02 0.11711106655E+02 0.13143494202E+02 0.14586235176E+02 0.15953448799E+02
 0.17086201442E+02 0.17851659045E+02 0.18790328217E+02 0.19113338028E+02 0.19209458476E+02
 0.19178811188E+02 0.19116052533E+02 0.19087283455E+02 0.19116052352E+02 0.19178811179E+02
 0.19209458832E+02 0.19113338519E+02 0.18790328526E+02 0.18163377691E+02 0.17205059135E+02
 0.15953447606E+02 0.14510946801E+02 0.13011616493E+02 0.11533119986E+02 0.10128919086E+02
 0.88441753000E+01 0.77083376039E+01 0.67326018177E+01 0.59125634570E+01 0.52341479419E+01
 0.46800413832E+01 0.42343793416E+01 0.38847828445E+01 0.36222180883E+01 0.34399663649E+01
 0.33329170543E+01 0.32976451215E+01 0.33329173415E+01 0.34399666116E+01 0.36222181741E+01
 0.38847829926E+01 0.42343796331E+01 0.46800415128E+01 0.52341476656E+01 0.59125629940E+01
 0.67326015529E+01 0.77083376125E+01 0.88441754035E+01 0.10128919234E+02 0.11533120264E+02
 0.13011616842E+02 0.14510947011E+02 0.15953447622E+02 0.17205059072E+02 0.18163377575E+02
 0.19638621898E+02 0.20302618518E+02 0.20745299547E+02 0.21009661191E+02 0.21131860292E+02
 0.21131862029E+02 0.21009664010E+02 0.20745299326E+02 0.20302614508E+02 0.19638617402E+02
 0.18719146326E+02 0.17537842506E+02 0.16131760365E+02 0.14586236537E+02 0.13011616493E+02
 0.11472661308E+02 0.10017305089E+02 0.86868767909E+01 0.75091502636E+01 0.64952439770E+01
 0.56412542310E+01 0.49332923694E+01 0.43534922959E+01 0.38847828410E+01 0.35133043552E+01
 0.32286272751E+01 0.30228279269E+01 0.28896393913E+01 0.28243542974E+01 0.28243540299E+01
 0.28896391601E+01 0.30228284349E+01 0.32286280996E+01 0.35133047007E+01 0.38847829926E+01
 0.43534930402E+01 0.49332930558E+01 0.56412529131E+01 0.64952401411E+01 0.75091463536E+01
 0.86868759760E+01 0.10017307908E+02 0.11472665231E+02 0.13011618490E+02 0.14586235471E+02
 0.16131757516E+02 0.17537840646E+02 0.18719147823E+02 0.20562328761E+02 0.21469178565E+02
 0.22117914028E+02 0.22507194914E+02 0.22636965399E+02 0.22507195111E+02 0.22117914308E+02
 0.21469178861E+02 0.20562329082E+02 0.19405083009E+02 0.18020986919E+02 0.16459923520E+02
 0.14803669825E+02 0.13143496796E+02 0.11533119986E+02 0.10017305089E+02 0.86341549606E+01
 0.74094067996E+01 0.63534636207E+01 0.54624360310E+01 0.47224301401E+01 0.41150723500E+01
 0.36222180302E+01 0.32286279158E+01 0.29225254008E+01 0.26948435185E+01 0.25382883075E+01
 0.24470214200E+01 0.24170748458E+01 0.24470213631E+01 0.25382882077E+01 0.26948434670E+01
 0.29225254910E+01 0.32286280996E+01 0.36222181741E+01 0.41150724200E+01 0.47224301903E+01
 0.54624360506E+01 0.63534635473E+01 0.74094067061E+01 0.86341550121E+01 0.10017305330E+02
 0.11533120270E+02 0.13143496995E+02 0.14803669902E+02 0.16459923470E+02 0.18020986718E+02
 0.19405082691E+02 0.21395355869E+02 0.22416399735E+02 0.23120403456E+02 0.23479750293E+02
 0.23479748718E+02 0.23120400217E+02 0.22416398140E+02 0.21395358233E+02 0.20096524194E+02
 0.18572134184E+02 0.16891073989E+02 0.15140390881E+02 0.13396644526E+02 0.11711108624E+02
 0.10128919086E+02 0.86868767909E+01 0.74094067996E+01 0.63063045301E+01 0.53736524787E+01
 0.45975898055E+01 0.39593790252E+01 0.34399665045E+01 0.30228279757E+01 0.26948437408E+01
 0.24457842892E+01 0.22673836608E+01 0.21528307100E+01 0.20969753903E+01 0.20969756004E+01
 0.21528308656E+01 0.22673831192E+01 0.24457833968E+01 0.26948434670E+01 0.30228284349E+01
 0.34399666116E+01 0.39593781900E+01 0.45975893637E+01 0.53736544081E+01 0.63063085555E+01
 0.74094098378E+01 0.86868761527E+01 0.10128915836E+02 0.11711106607E+02 0.13396645884E+02
 0.15140393435E+02 0.16891073747E+02 0.18572129992E+02 0.20096518969E+02 0.22024445879E+02
 0.23031660493E+02 0.23660463424E+02 0.23874305827E+02 0.23660463361E+02 0.23031660339E+02
 0.22024445682E+02 0.20695394359E+02 0.19117356391E+02 0.17377024941E+02 0.15565397329E+02
 0.13752786815E+02 0.11997431861E+02 0.10348506047E+02 0.88441753000E+01 0.75091502636E+01
 0.63534636207E+01 0.53736524787E+01 0.45562708403E+01 0.38825797110E+01 0.33329172016E+01
 0.28896392092E+01 0.25382884283E+01 0.22673833641E+01 0.20676261496E+01 0.19312996447E+01
 0.18522517538E+01 0.18263860345E+01 0.18522515085E+01 0.19312993472E+01 0.20676259040E+01
 0.22673831192E+01 0.25382882077E+01 0.28896391601E+01 0.33329173415E+01 0.38825798231E+01
 0.45562707403E+01 0.53736522415E+01 0.63534634523E+01 0.75091502916E+01 0.88441755443E+01
 0.10348506460E+02 0.11997432281E+02 0.13752786984E+02 0.15565397155E+02 0.17377024599E+02
 0.19117356193E+02 0.20695394430E+02 0.22413755180E+02 0.23302262519E+02 0.23762519245E+02
 0.23762519819E+02 0.23302264442E+02 0.22413757766E+02 0.21157292183E+02 0.19615486588E+02
 0.17883116092E+02 0.16048779094E+02 0.14191639648E+02 0.12380054862E+02 0.10670053027E+02
 0.91038132559E+01 0.77083376039E+01 0.64952439770E+01 0.54624360310E+01 0.45975898055E+01
 0.38825797110E+01 0.32976450157E+01 0.28243543777E+01 0.24470214348E+01 0.21528307006E+01
 0.19312993841E+01 0.17737279234E+01 0.16730430607E+01 0.16240818537E+01 0.16240818592E+01
 0.16730429654E+01 0.17737277150E+01 0.19312993472E+01 0.21528308656E+01 0.24470213631E+01
 0.28243540299E+01 0.32976451215E+01 0.38825803934E+01 0.45975895226E+01 0.54624333580E+01
 0.64952402230E+01 0.77083358895E+01 0.91038145711E+01 0.10670054971E+02 0.12380055315E+02
 0.14191639954E+02 0.16048781806E+02 0.17883120602E+02 0.19615489401E+02 0.21157291437E+02
 0.22604832624E+02 0.23303430464E+02 0.23542454649E+02 0.23303430807E+02 0.22604833274E+02
 0.21499010886E+02 0.20063393220E+02 0.18389267670E+02 0.16571067571E+02 0.14698071749E+02
 0.12848863992E+02 0.11087902572E+02 0.94634720516E+01 0.80068017089E+01 0.67326018177E+01
 0.56412542310E+01 0.47224301401E+01 0.39593790252E+01 0.33329172016E+01 0.28243543777E+01
 0.24170749052E+01 0.20969756784E+01 0.18522515605E+01 0.16730429517E+01 0.15512822958E+01
 0.14808297779E+01 0.14577920782E+01 0.14808298109E+01 0.15512823441E+01 0.16730429654E+01
 0.18522515085E+01 0.20969756004E+01 0.24170748458E+01 0.28243542974E+01 0.33329170543E+01
 0.39593788901E+01 0.47224301453E+01 0.56412543420E+01 0.67326018360E+01 0.80068015583E+01
 0.94634719339E+01 0.11087902762E+02 0.12848864541E+02 0.14698072390E+02 0.16571067924E+02
 0.18389267515E+02 0.20063392615E+02 0.21499010103E+02 0.22677455980E+02 0.23153282262E+02
 0.23153282558E+02 0.22677456157E+02 0.21761663512E+02 0.20472050609E+02 0.18895526703E+02
 0.17128765571E+02 0.15267977277E+02 0.13400780945E+02 0.11600560200E+02 0.99231634747E+01
 0.84057371352E+01 0.70675474310E+01 0.59125634570E+01 0.49332923694E+01 0.41150723500E+01
 0.34399665045E+01 0.28896392092E+01 0.24470214348E+01 0.20969756784E+01 0.18263861367E+01
 0.16240815894E+01 0.14808295376E+01 0.13894547010E+01 0.13450251650E+01 0.13450250949E+01
 0.13894546997E+01 0.14808298109E+01 0.16240818592E+01 0.18263860345E+01 0.20969753903E+01
 0.24470214200E+01 0.28896393913E+01 0.34399663649E+01 0.41150719789E+01 0.49332928191E+01
 0.59125656242E+01 0.70675508269E+01 0.84057400587E+01 0.99231642579E+01 0.11600558171E+02
 0.13400776736E+02 0.15267972678E+02 0.17128762694E+02 0.18895526459E+02 0.20472051886E+02
 0.21761664388E+02 0.22684681231E+02 0.22925344918E+02 0.22684681606E+02 0.21980927655E+02
 0.20866113039E+02 0.19418703063E+02 0.17733313267E+02 0.15909637965E+02 0.14042437238E+02
 0.12213770398E+02 0.10488016136E+02 0.89097604156E+01 0.75043222669E+01 0.62804119437E+01
 0.52341479419E+01 0.43534922959E+01 0.36222180302E+01 0.30228279757E+01 0.25382884283E+01
 0.21528307006E+01 0.18522515605E+01 0.16240815894E+01 0.14577917901E+01 0.13450247646E+01
 0.12797661880E+01 0.12584125090E+01 0.12797664476E+01 0.13450250949E+01 0.14577920782E+01
 0.16240818537E+01 0.18522517538E+01 0.21528307100E+01 0.25382883075E+01 0.30228279269E+01
 0.36222180883E+01 0.43534922622E+01 0.52341477258E+01 0.62804117568E+01 0.75043223274E+01
 0.89097606530E+01 0.10488016339E+02 0.12213770506E+02 0.14042437348E+02 0.15909638100E+02
 0.17733313284E+02 0.19418702816E+02 0.20866112542E+02 0.21980927091E+02 0.22669188265E+02
 0.22669188310E+02 0.22192197001E+02 0.21274082608E+02 0.19981573182E+02 0.18403341806E+02
 0.16639012869E+02 0.14788079985E+02 0.12940410622E+02 0.11169452701E+02 0.95286571891E+01
 0.80510738507E+01 0.67515870875E+01 0.56308810369E+01 0.46800413832E+01 0.38847828410E+01
 0.32286279158E+01 0.26948437408E+01 0.22673833641E+01 0.19312993841E+01 0.16730429517E+01
 0.14808295376E+01 0.13450247646E+01 0.12584121917E+01 0.12162642682E+01 0.12162643737E+01
 0.12584125090E+01 0.13450251650E+01 0.14808297779E+01 0.16730430607E+01 0.19312996447E+01
 0.22673836608E+01 0.26948435185E+01 0.32286272751E+01 0.38847828445E+01 0.46800422098E+01
 0.56308804977E+01 0.67515828863E+01 0.80510676451E+01 0.95286544110E+01 0.11169456926E+02
 0.12940419131E+02 0.14788086474E+02 0.16639013978E+02 0.18403339424E+02 0.19981570813E+02
 0.21274081601E+02 0.22192196770E+02 0.22660532062E+02 0.22419705836E+02 0.21715508536E+02
 0.20600234798E+02 0.19153088406E+02 0.17469982678E+02 0.15652179674E+02 0.13795670153E+02
 0.11982782171E+02 0.10276910922E+02 0.87206346610E+01 0.73368926738E+01 0.61324102478E+01
 0.51022540674E+01 0.42343793416E+01 0.35133043552E+01 0.29225254008E+01 0.24457842892E+01
 0.20676261496E+01 0.17737279234E+01 0.15512822958E+01 0.13894547010E+01 0.12797661880E+01
 0.12162642682E+01 0.11954751280E+01 0.12162642682E+01 0.12797661880E+01 0.13894547010E+01
 0.15512822958E+01 0.17737279234E+01 0.20676261496E+01 0.24457842892E+01 0.29225254008E+01
 0.35133043552E+01 0.42343793416E+01 0.51022540674E+01 0.61324102478E+01 0.73368926738E+01
 0.87206346610E+01 0.10276910922E+02 0.11982782171E+02 0.13795670153E+02 0.15652179674E+02
 0.17469982678E+02 0.19153088406E+02 0.20600234798E+02 0.21715508536E+02 0.22419705836E+02
 0.22669188265E+02 0.22192196770E+02 0.21274081601E+02 0.19981570813E+02 0.18403339424E+02
 0.16639013978E+02 0.14788086474E+02 0.12940419131E+02 0.11169456926E+02 0.95286544110E+01
 0.80510676451E+01 0.67515828863E+01 0.56308804977E+01 0.46800422098E+01 0.38847828445E+01
 0.32286272751E+01 0.26948435185E+01 0.22673836608E+01 0.19312996447E+01 0.16730430607E+01
 0.14808297779E+01 0.13450251650E+01 0.12584125090E+01 0.12162643737E+01 0.12162642682E+01
 0.12584121917E+01 0.13450247646E+01 0.14808295376E+01 0.16730429517E+01 0.19312993841E+01
 0.22673833641E+01 0.26948437408E+01 0.32286279158E+01 0.38847828410E+01 0.46800413832E+01
 0.56308810369E+01 0.67515870875E+01 0.80510738507E+01 0.95286571891E+01 0.11169452701E+02
 0.12940410622E+02 0.14788079985E+02 0.16639012869E+02 0.18403341806E+02 0.19981573182E+02
 0.21274082608E+02 0.22192197001E+02 0.22669188310E+02 0.22684681231E+02 0.21980927091E+02
 0.20866112542E+02 0.19418702816E+02 0.17733313284E+02 0.15909638100E+02 0.14042437348E+02
 0.12213770506E+02 0.10488016339E+02 0.89097606530E+01 0.75043223274E+01 0.62804117568E+01
 0.52341477258E+01 0.43534922622E+01 0.36222180883E+01 0.30228279269E+01 0.25382883075E+01
 0.21528307100E+01 0.18522517538E+01 0.16240818537E+01 0.14577920782E+01 0.13450250949E+01
 0.12797664476E+01 0.12584125090E+01 0.12797661880E+01 0.13450247646E+01 0.14577917901E+01
 0.16240815894E+01 0.18522515605E+01 0.21528307006E+01 0.25382884283E+01 0.30228279757E+01
 0.36222180302E+01 0.43534922959E+01 0.52341479419E+01 0.62804119437E+01 0.75043222669E+01
 0.89097604156E+01 0.10488016136E+02 0.12213770398E+02 0.14042437238E+02 0.15909637965E+02
 0.17733313267E+02 0.19418703063E+02 0.20866113039E+02 0.21980927655E+02 0.22684681606E+02
 0.22925344918E+02 0.22677455980E+02 0.21761664388E+02 0.20472051886E+02 0.18895526459E+02
 0.17128762694E+02 0.15267972678E+02 0.13400776736E+02 0.11600558171E+02 0.99231642579E+01
 0.84057400587E+01 0.70675508269E+01 0.59125656242E+01 0.49332928191E+01 0.41150719789E+01
 0.34399663649E+01 0.28896393913E+01 0.24470214200E+01 0.20969753903E+01 0.18263860345E+01
 0.16240818592E+01 0.14808298109E+01 0.13894546997E+01 0.13450250949E+01 0.13450251650E+01
 0.13894547010E+01 0.14808295376E+01 0.16240815894E+01 0.18263861367E+01 0.20969756784E+01
 0.24470214348E+01 0.28896392092E+01 0.34399665045E+01 0.41150723500E+01 0.49332923694E+01
 0.59125634570E+01 0.70675474310E+01 0.84057371352E+01 0.99231634747E+01 0.11600560200E+02
 0.13400780945E+02 0.15267977277E+02 0.17128765571E+02 0.18895526703E+02 0.20472050609E+02
 0.21761663512E+02 0.22677456157E+02 0.23153282558E+02 0.23153282262E+02 0.22604832624E+02
 0.21499010103E+02 0.20063392615E+02 0.18389267515E+02 0.16571067924E+02 0.14698072390E+02
 0.12848864541E+02 0.11087902762E+02 0.94634719339E+01 0.80068015583E+01 0.67326018360E+01
 0.56412543420E+01 0.47224301453E+01 0.39593788901E+01 0.33329170543E+01 0.28243542974E+01
 0.24170748458E+01 0.20969756004E+01 0.18522515085E+01 0.16730429654E+01 0.15512823441E+01
 0.14808298109E+01 0.14577920782E+01 0.14808297779E+01 0.15512822958E+01 0.16730429517E+01
 0.18522515605E+01 0.20969756784E+01 0.24170749052E+01 0.28243543777E+01 0.33329172016E+01
 0.39593790252E+01 0.47224301401E+01 0.56412542310E+01 0.67326018177E+01 0.80068017089E+01
 0.94634720516E+01 0.11087902572E+02 0.12848863992E+02 0.14698071749E+02 0.16571067571E+02
 0.18389267670E+02 0.20063393220E+02 0.21499010886E+02 0.22604833274E+02 0.23303430807E+02
 0.23542454649E+02 0.23303430464E+02 0.22413755180E+02 0.21157291437E+02 0.19615489401E+02
 0.17883120602E+02 0.16048781806E+02 0.14191639954E+02 0.12380055315E+02 0.10670054971E+02
 0.91038145711E+01 0.77083358895E+01 0.64952402230E+01 0.54624333580E+01 0.45975895226E+01
 0.38825803934E+01 0.32976451215E+01 0.28243540299E+01 0.24470213631E+01 0.21528308656E+01
 0.19312993472E+01 0.17737277150E+01 0.16730429654E+01 0.16240818592E+01 0.16240818537E+01
 0.16730430607E+01 0.17737279234E+01 0.19312993841E+01 0.21528307006E+01 0.24470214348E+01
 0.28243543777E+01 0.32976450157E+01 0.38825797110E+01 0.45975898055E+01 0.54624360310E+01
 0.64952439770E+01 0.77083376039E+01 0.91038132559E+01 0.10670053027E+02 0.12380054862E+02
 0.14191639648E+02 0.16048779094E+02 0.17883116092E+02 0.19615486588E+02 0.21157292183E+02
 0.22413757766E+02 0.23302264442E+02 0.23762519819E+02 0.23762519245E+02 0.23302262519E+02
 0.22024445879E+02 0.20695394430E+02 0.19117356193E+02 0.17377024599E+02 0.15565397155E+02
 0.13752786984E+02 0.11997432281E+02 0.10348506460E+02 0.88441755443E+01 0.75091502916E+01
 0.63534634523E+01 0.53736522415E+01 0.45562707403E+01 0.38825798231E+01 0.33329173415E+01
 0.28896391601E+01 0.25382882077E+01 0.22673831192E+01 0.20676259040E+01 0.19312993472E+01
 0.18522515085E+01 0.18263860345E+01 0.18522517538E+01 0.19312996447E+01 0.20676261496E+01
 0.22673833641E+01 0.25382884283E+01 0.28896392092E+01 0.33329172016E+01 0.38825797110E+01
 0.45562708403E+01 0.53736524787E+01 0.63534636207E+01 0.75091502636E+01 0.88441753000E+01
 0.10348506047E+02 0.11997431861E+02 0.13752786815E+02 0.15565397329E+02 0.17377024941E+02
 0.19117356391E+02 0.20695394359E+02 0.22024445682E+02 0.23031660339E+02 0.23660463361E+02
 0.23874305827E+02 0.23660463424E+02 0.23031660493E+02 0.21395355869E+02 0.20096518969E+02
 0.18572129992E+02 0.16891073747E+02 0.15140393435E+02 0.13396645884E+02 0.11711106607E+02
 0.10128915836E+02 0.86868761527E+01 0.74094098378E+01 0.63063085555E+01 0.53736544081E+01
 0.45975893637E+01 0.39593781900E+01 0.34399666116E+01 0.30228284349E+01 0.26948434670E+01
 0.24457833968E+01 0.22673831192E+01 0.21528308656E+01 0.20969756004E+01 0.20969753903E+01
 0.21528307100E+01 0.22673836608E+01 0.24457842892E+01 0.26948437408E+01 0.30228279757E+01
 0.34399665045E+01 0.39593790252E+01 0.45975898055E+01 0.53736524787E+01 0.63063045301E+01
 0.74094067996E+01 0.86868767909E+01 0.10128919086E+02 0.11711108624E+02 0.13396644526E+02
 0.15140390881E+02 0.16891073989E+02 0.18572134184E+02 0.20096524194E+02 0.21395358233E+02
 0.22416398140E+02 0.23120400217E+02 0.23479748718E+02 0.23479750293E+02 0.23120403456E+02
 0.22416399735E+02 0.20562328761E+02 0.19405082691E+02 0.18020986718E+02 0.16459923470E+02
 0.14803669902E+02 0.13143496995E+02 0.11533120270E+02 0.10017305330E+02 0.86341550121E+01
 0.74094067061E+01 0.63534635473E+01 0.54624360506E+01 0.47224301903E+01 0.41150724200E+01
 0.36222181741E+01 0.32286280996E+01 0.29225254910E+01 0.26948434670E+01 0.25382882077E+01
 0.24470213631E+01 0.24170748458E+01 0.24470214200E+01 0.25382883075E+01 0.26948435185E+01
 0.29225254008E+01 0.32286279158E+01 0.36222180302E+01 0.41150723500E+01 0.47224301401E+01
 0.54624360310E+01 0.63534636207E+01 0.74094067996E+01 0.86341549606E+01 0.10017305089E+02
 0.11533119986E+02 0.13143496796E+02 0.14803669825E+02 0.16459923520E+02 0.18020986919E+02
 0.19405083009E+02 0.20562329082E+02 0.21469178861E+02 0.22117914308E+02 0.22507195111E+02
 0.22636965399E+02 0.22507194914E+02 0.22117914028E+02 0.21469178565E+02 0.19638621898E+02
 0.18719147823E+02 0.17537840646E+02 0.16131757516E+02 0.14586235471E+02 0.13011618490E+02
 0.11472665231E+02 0.10017307908E+02 0.86868759760E+01 0.75091463536E+01 0.64952401411E+01
 0.56412529131E+01 0.49332930558E+01 0.43534930402E+01 0.38847829926E+01 0.35133047007E+01
 0.32286280996E+01 0.30228284349E+01 0.28896391601E+01 0.28243540299E+01 0.28243542974E+01
 0.28896393913E+01 0.30228279269E+01 0.32286272751E+01 0.35133043552E+01 0.38847828410E+01
 0.43534922959E+01 0.49332923694E+01 0.56412542310E+01 0.64952439770E+01 0.75091502636E+01
 0.86868767909E+01 0.10017305089E+02 0.11472661308E+02 0.13011616493E+02 0.14586236537E+02
 0.16131760365E+02 0.17537842506E+02 0.18719146326E+02 0.19638617402E+02 0.20302614508E+02
 0.20745299326E+02 0.21009664010E+02 0.21131862029E+02 0.21131860292E+02 0.21009661191E+02