   2   2   0   0
  0.2438900E+02  0.4101219E-09  0.4101219E-09  0.4101219E-09  0.5000000E-15
  1.000000000000000E-004
  CAR 
 Silicon                                 
     26.44310260     -8.29254838  301      4.44566613      1.00000000
     -8.293  0.0000E+00  0.0000E+00
     -8.177  0.0000E+00  0.0000E+00
     -8.061  0.0000E+00  0.0000E+00
     -7.945  0.0000E+00  0.0000E+00
     -7.829  0.0000E+00  0.0000E+00
     -7.714  0.0000E+00  0.0000E+00
     -7.598  0.0000E+00  0.0000E+00
     -7.482  0.0000E+00  0.0000E+00
     -7.366  0.0000E+00  0.0000E+00
     -7.250  0.8296E-16  0.9605E-17
     -7.135  0.7388E-11  0.8555E-12
     -7.019  0.5416E-07  0.6272E-08
     -6.903  0.3914E-04  0.4538E-05
     -6.787  0.3322E-02  0.3891E-03
     -6.672  0.4111E-01  0.5149E-02
     -6.556  0.1319E+00  0.2042E-01
     -6.440  0.2023E+00  0.4383E-01
     -6.324  0.2714E+00  0.7526E-01
     -6.208  0.2900E+00  0.1088E+00
     -6.093  0.3779E+00  0.1526E+00
     -5.977  0.3639E+00  0.1947E+00
     -5.861  0.4326E+00  0.2448E+00
     -5.745  0.5030E+00  0.3031E+00
     -5.629  0.4432E+00  0.3544E+00
     -5.514  0.5720E+00  0.4206E+00
     -5.398  0.6300E+00  0.4935E+00
     -5.282  0.5580E+00  0.5581E+00
     -5.166  0.6754E+00  0.6364E+00
     -5.051  0.8319E+00  0.7327E+00
     -4.935  0.7761E+00  0.8225E+00
     -4.819  0.8658E+00  0.9228E+00
     -4.703  0.1200E+01  0.1062E+01
     -4.587  0.9622E+00  0.1173E+01
     -4.472  0.8669E+00  0.1274E+01
     -4.356  0.9704E+00  0.1386E+01
     -4.240  0.9061E+00  0.1491E+01
     -4.124  0.6347E+00  0.1564E+01
     -4.008  0.7919E+00  0.1656E+01
     -3.893  0.7384E+00  0.1742E+01
     -3.777  0.4566E+00  0.1794E+01
     -3.661  0.5747E+00  0.1861E+01
     -3.545  0.5309E+00  0.1922E+01
     -3.430  0.2631E+00  0.1953E+01
     -3.314  0.2471E+00  0.1981E+01
     -3.198  0.1938E+00  0.2004E+01
     -3.082  0.1355E+00  0.2020E+01
     -2.966  0.1564E+00  0.2038E+01
     -2.851  0.3037E+00  0.2073E+01
     -2.735  0.5183E+00  0.2133E+01
     -2.619  0.4715E+00  0.2187E+01
     -2.503  0.4384E+00  0.2238E+01
     -2.387  0.7797E+00  0.2329E+01
     -2.272  0.9235E+00  0.2435E+01
     -2.156  0.1023E+01  0.2554E+01
     -2.040  0.1394E+01  0.2715E+01
     -1.924  0.1241E+01  0.2859E+01
     -1.809  0.7898E+00  0.2950E+01
     -1.693  0.6952E+00  0.3031E+01
     -1.577  0.6829E+00  0.3110E+01
     -1.461  0.6499E+00  0.3185E+01
     -1.345  0.6019E+00  0.3255E+01
     -1.230  0.3549E+00  0.3296E+01
     -1.114  0.4748E+00  0.3351E+01
     -0.998  0.5262E+00  0.3412E+01
     -0.882  0.4166E+00  0.3460E+01
     -0.766  0.2804E+00  0.3493E+01
     -0.651  0.3329E+00  0.3531E+01
     -0.535  0.3220E+00  0.3568E+01
     -0.419  0.3196E+00  0.3605E+01
     -0.303  0.3350E+00  0.3644E+01
     -0.188  0.2525E+00  0.3673E+01
     -0.072  0.1215E+00  0.3688E+01
      0.044  0.2301E+00  0.3714E+01
      0.160  0.2830E+00  0.3747E+01
      0.276  0.1966E+00  0.3770E+01
      0.391  0.2105E+00  0.3794E+01
      0.507  0.3966E+00  0.3840E+01
      0.623  0.9218E+00  0.3947E+01
      0.739  0.1332E+01  0.4101E+01
      0.855  0.1447E+01  0.4268E+01
      0.970  0.1384E+01  0.4429E+01
      1.086  0.1238E+01  0.4572E+01
      1.202  0.1353E+01  0.4729E+01
      1.318  0.1077E+01  0.4853E+01
      1.433  0.1375E+01  0.5013E+01
      1.549  0.1645E+01  0.5203E+01
      1.665  0.1530E+01  0.5380E+01
      1.781  0.1791E+01  0.5588E+01
      1.897  0.1940E+01  0.5812E+01
      2.012  0.1521E+01  0.5988E+01
      2.128  0.1719E+01  0.6187E+01
      2.244  0.1942E+01  0.6412E+01
      2.360  0.1362E+01  0.6570E+01
      2.476  0.1387E+01  0.6731E+01
      2.591  0.1698E+01  0.6927E+01
      2.707  0.1578E+01  0.7110E+01
      2.823  0.1414E+01  0.7274E+01
      2.939  0.1298E+01  0.7424E+01
      3.054  0.1181E+01  0.7561E+01
      3.170  0.9308E+00  0.7668E+01
      3.286  0.7275E+00  0.7753E+01
      3.402  0.5852E+00  0.7820E+01
      3.518  0.4979E+00  0.7878E+01
      3.633  0.4357E+00  0.7928E+01
      3.749  0.2690E+00  0.7960E+01
      3.865  0.1878E+00  0.7981E+01
      3.981  0.1188E+00  0.7995E+01
      4.097  0.3971E-01  0.8000E+01
      4.212  0.2524E-02  0.8000E+01
      4.328  0.2530E-04  0.8000E+01
      4.444  0.2930E-07  0.8000E+01
      4.560  0.3847E-06  0.8000E+01
      4.675  0.2106E-03  0.8000E+01
      4.791  0.1076E-01  0.8001E+01
      4.907  0.7995E-01  0.8011E+01
      5.023  0.2054E+00  0.8034E+01
      5.139  0.3115E+00  0.8070E+01
      5.254  0.5954E+00  0.8139E+01
      5.370  0.8206E+00  0.8234E+01
      5.486  0.8966E+00  0.8338E+01
      5.602  0.1130E+01  0.8469E+01
      5.717  0.1076E+01  0.8594E+01
      5.833  0.1580E+01  0.8776E+01
      5.949  0.1812E+01  0.8986E+01
      6.065  0.1817E+01  0.9197E+01
      6.181  0.2029E+01  0.9432E+01
      6.296  0.1696E+01  0.9628E+01
      6.412  0.1296E+01  0.9778E+01
      6.528  0.1117E+01  0.9907E+01
      6.644  0.1370E+01  0.1007E+02
      6.760  0.1319E+01  0.1022E+02
      6.875  0.6960E+00  0.1030E+02
      6.991  0.8761E+00  0.1040E+02
      7.107  0.1528E+01  0.1058E+02
      7.223  0.2107E+01  0.1082E+02
      7.338  0.2769E+01  0.1114E+02
      7.454  0.2564E+01  0.1144E+02
      7.570  0.1756E+01  0.1164E+02
      7.686  0.1264E+01  0.1179E+02
      7.802  0.1004E+01  0.1190E+02
      7.917  0.1068E+01  0.1203E+02
      8.033  0.1561E+01  0.1221E+02
      8.149  0.1515E+01  0.1238E+02
      8.265  0.1404E+01  0.1255E+02
      8.381  0.1493E+01  0.1272E+02
      8.496  0.1631E+01  0.1291E+02
      8.612  0.1987E+01  0.1314E+02
      8.728  0.1758E+01  0.1334E+02
      8.844  0.1362E+01  0.1350E+02
      8.959  0.1203E+01  0.1364E+02
      9.075  0.1335E+01  0.1379E+02
      9.191  0.9573E+00  0.1391E+02
      9.307  0.8839E+00  0.1401E+02
      9.423  0.1291E+01  0.1416E+02
      9.538  0.1443E+01  0.1432E+02
      9.654  0.1504E+01  0.1450E+02
      9.770  0.1372E+01  0.1466E+02
      9.886  0.1041E+01  0.1478E+02
     10.002  0.8457E+00  0.1488E+02
     10.117  0.5943E+00  0.1494E+02
     10.233  0.1006E+01  0.1506E+02
     10.349  0.1390E+01  0.1522E+02
     10.465  0.1398E+01  0.1538E+02
     10.580  0.1481E+01  0.1555E+02
     10.696  0.1611E+01  0.1574E+02
     10.812  0.1557E+01  0.1592E+02
     10.928  0.1168E+01  0.1606E+02
     11.044  0.9910E+00  0.1617E+02
     11.159  0.1027E+01  0.1629E+02
     11.275  0.1369E+01  0.1645E+02
     11.391  0.1690E+01  0.1664E+02
     11.507  0.1630E+01  0.1683E+02
     11.623  0.1495E+01  0.1701E+02
     11.738  0.1164E+01  0.1714E+02
     11.854  0.8216E+00  0.1724E+02
     11.970  0.9046E+00  0.1734E+02
     12.086  0.1501E+01  0.1752E+02
     12.201  0.1762E+01  0.1772E+02
     12.317  0.1918E+01  0.1794E+02
     12.433  0.1465E+01  0.1811E+02
     12.549  0.1320E+01  0.1826E+02
     12.665  0.1474E+01  0.1843E+02
     12.780  0.1402E+01  0.1860E+02
     12.896  0.1512E+01  0.1877E+02
     13.012  0.1539E+01  0.1895E+02
     13.128  0.1405E+01  0.1911E+02
     13.244  0.1731E+01  0.1931E+02
     13.359  0.1652E+01  0.1950E+02
     13.475  0.1317E+01  0.1966E+02
     13.591  0.1747E+01  0.1986E+02
     13.707  0.1624E+01  0.2005E+02
     13.822  0.1239E+01  0.2019E+02
     13.938  0.1268E+01  0.2034E+02
     14.054  0.1296E+01  0.2049E+02
     14.170  0.1001E+01  0.2060E+02
     14.286  0.9682E+00  0.2072E+02
     14.401  0.1084E+01  0.2084E+02
     14.517  0.1698E+01  0.2104E+02
     14.633  0.1899E+01  0.2126E+02
     14.749  0.1718E+01  0.2146E+02
     14.865  0.1577E+01  0.2164E+02
     14.980  0.1619E+01  0.2183E+02
     15.096  0.1394E+01  0.2199E+02
     15.212  0.1725E+01  0.2219E+02
     15.328  0.1827E+01  0.2240E+02
     15.443  0.1894E+01  0.2262E+02
     15.559  0.1869E+01  0.2284E+02
     15.675  0.2097E+01  0.2308E+02
     15.791  0.1878E+01  0.2330E+02
     15.907  0.1461E+01  0.2346E+02
     16.022  0.1970E+01  0.2369E+02
     16.138  0.1930E+01  0.2392E+02
     16.254  0.1042E+01  0.2404E+02
     16.370  0.1533E+01  0.2421E+02
     16.486  0.2274E+01  0.2448E+02
     16.601  0.1892E+01  0.2470E+02
     16.717  0.2171E+01  0.2495E+02
     16.833  0.2022E+01  0.2518E+02
     16.949  0.1363E+01  0.2534E+02
     17.064  0.1348E+01  0.2550E+02
     17.180  0.1470E+01  0.2567E+02
     17.296  0.1422E+01  0.2583E+02
     17.412  0.1269E+01  0.2598E+02
     17.528  0.1634E+01  0.2617E+02
     17.643  0.1819E+01  0.2638E+02
     17.759  0.1486E+01  0.2655E+02
     17.875  0.1656E+01  0.2674E+02
     17.991  0.1615E+01  0.2693E+02
     18.107  0.1356E+01  0.2709E+02
     18.222  0.1367E+01  0.2724E+02
     18.338  0.1586E+01  0.2743E+02
     18.454  0.1965E+01  0.2765E+02
     18.570  0.1600E+01  0.2784E+02
     18.685  0.1762E+01  0.2804E+02
     18.801  0.1600E+01  0.2823E+02
     18.917  0.1654E+01  0.2842E+02
     19.033  0.1581E+01  0.2860E+02
     19.149  0.1556E+01  0.2878E+02
     19.264  0.1306E+01  0.2894E+02
     19.380  0.1252E+01  0.2908E+02
     19.496  0.1935E+01  0.2930E+02
     19.612  0.2772E+01  0.2963E+02
     19.728  0.2469E+01  0.2991E+02
     19.843  0.1444E+01  0.3008E+02
     19.959  0.1384E+01  0.3024E+02
     20.075  0.1854E+01  0.3045E+02
     20.191  0.1998E+01  0.3068E+02
     20.306  0.1835E+01  0.3090E+02
     20.422  0.1799E+01  0.3111E+02
     20.538  0.1476E+01  0.3128E+02
     20.654  0.1302E+01  0.3143E+02
     20.770  0.1236E+01  0.3157E+02
     20.885  0.4361E+00  0.3162E+02
     21.001  0.4676E+00  0.3167E+02
     21.117  0.5396E+00  0.3174E+02
     21.233  0.3201E+00  0.3177E+02
     21.349  0.3396E+00  0.3181E+02
     21.464  0.3333E+00  0.3185E+02
     21.580  0.2778E+00  0.3188E+02
     21.696  0.1214E+00  0.3190E+02
     21.812  0.1492E-01  0.3190E+02
     21.927  0.8566E-01  0.3191E+02
     22.043  0.2597E+00  0.3194E+02
     22.159  0.1430E+00  0.3196E+02
     22.275  0.2623E-01  0.3196E+02
     22.391  0.3721E-02  0.3196E+02
     22.506  0.1877E-01  0.3196E+02
     22.622  0.1046E+00  0.3197E+02
     22.738  0.1157E+00  0.3199E+02
     22.854  0.2568E-01  0.3199E+02
     22.970  0.8909E-03  0.3199E+02
     23.085  0.3394E-05  0.3199E+02
     23.201  0.1127E-08  0.3199E+02
     23.317  0.1753E-11  0.3199E+02
     23.433  0.2294E-07  0.3199E+02
     23.548  0.2302E-04  0.3199E+02
     23.664  0.1885E-02  0.3199E+02
     23.780  0.1478E-01  0.3199E+02
     23.896  0.1782E-01  0.3200E+02
     24.012  0.2421E-01  0.3200E+02
     24.127  0.1223E-01  0.3200E+02
     24.243  0.6971E-03  0.3200E+02
     24.359  0.3549E-05  0.3200E+02
     24.475  0.1517E-08  0.3200E+02
     24.591  0.2780E-06  0.3200E+02
     24.706  0.6512E-04  0.3200E+02
     24.822  0.1346E-02  0.3200E+02
     24.938  0.2946E-02  0.3200E+02
     25.054  0.7422E-03  0.3200E+02
     25.169  0.1883E-04  0.3200E+02
     25.285  0.4048E-07  0.3200E+02
     25.401  0.6680E-11  0.3200E+02
     25.517  0.8069E-16  0.3200E+02
     25.633  0.0000E+00  0.3200E+02
     25.748  0.0000E+00  0.3200E+02
     25.864  0.0000E+00  0.3200E+02
     25.980  0.0000E+00  0.3200E+02
     26.096  0.0000E+00  0.3200E+02
     26.212  0.0000E+00  0.3200E+02
     26.327  0.0000E+00  0.3200E+02
     26.443  0.0000E+00  0.3200E+02
