    2    2    1    1
  0.2438900E+02  0.4101219E-09  0.4101219E-09  0.4101219E-09  0.5000000E-15
  1.000000000000000E-004
  CAR 
 Silicon                                 
      8    120     16
 
  0.0000000E+00  0.0000000E+00  0.0000000E+00  0.2962963E-03
    1       -6.713655   1.000000
    2        4.000741   1.000000
    3        4.000742   1.000000
    4        4.000742   1.000000
    5        5.260019   0.000000
    6        6.462359   0.000000
    7        6.462360   0.000000
    8        6.462360   0.000000
    9       11.232430   0.000000
   10       11.595124   0.000000
   11       11.595124   0.000000
   12       14.607825   0.000000
   13       14.607825   0.000000
   14       14.607825   0.000000
   15       18.264793   0.000000
   16       24.864209   0.000000
 
  0.6666667E-01  0.0000000E+00  0.0000000E+00  0.2370370E-02
    1       -6.664717   1.000000
    2        3.321130   1.000000
    3        3.924286   1.000000
    4        3.924286   1.000000
    5        5.639671   0.000000
    6        6.575343   0.000000
    7        6.575343   0.000000
    8        6.683158   0.000000
    9       11.439835   0.000000
   10       11.439835   0.000000
   11       11.448101   0.000000
   12       14.419630   0.000000
   13       14.929121   0.000000
   14       14.929121   0.000000
   15       18.607592   0.000000
   16       23.977667   0.000000
 
  0.1333333E+00  0.0000000E+00  0.0000000E+00  0.2370370E-02
    1       -6.519072   1.000000
    2        2.233734   1.000000
    3        3.739050   1.000000
    4        3.739050   1.000000
    5        5.684354   0.000000
    6        6.849972   0.000000
    7        6.849972   0.000000
    8        7.533107   0.000000
    9       11.157145   0.000000
   10       11.157145   0.000000
   11       11.991456   0.000000
   12       14.080746   0.000000
   13       15.721702   0.000000
   14       15.721702   0.000000
   15       19.436384   0.000000
   16       22.699923   0.000000
 
  0.2000000E+00  0.0000000E+00  0.0000000E+00  0.2370370E-02
    1       -6.280888   1.000000
    2        1.133469   1.000000
    3        3.519830   1.000000
    4        3.519830   1.000000
    5        5.488645   0.000000
    6        7.150751   0.000000
    7        7.150752   0.000000
    8        8.614190   0.000000
    9       11.013451   0.000000
   10       11.013451   0.000000
   11       12.439078   0.000000
   12       14.132185   0.000000
   13       16.737174   0.000000
   14       16.737174   0.000000
   15       20.201101   0.000000
   16       21.213021   0.000000
 
  0.2666667E+00  0.0000000E+00  0.0000000E+00  0.2370370E-02
    1       -5.959424   1.000000
    2        0.092878   1.000000
    3        3.315994   1.000000
    4        3.315994   1.000000
    5        5.266223   0.000000
    6        7.352419   0.000000
    7        7.352420   0.000000
    8        9.718287   0.000000
    9       11.177662   0.000000
   10       11.177662   0.000000
   11       12.371330   0.000000
   12       14.971015   0.000000
   13       17.632775   0.000000
   14       17.632775   0.000000
   15       19.572363   0.000000
   16       19.986624   0.000000
 
  0.3333333E+00  0.0000000E+00  0.0000000E+00  0.2370370E-02
    1       -5.574988   1.000000
    2       -0.844040   1.000000
    3        3.152076   1.000000
    4        3.152077   1.000000
    5        5.076610   0.000000
    6        7.415598   0.000000
    7        7.415599   0.000000
    8       10.750845   0.000000
    9       11.699187   0.000000
   10       11.699188   0.000000
   11       12.225136   0.000000
   12       15.934484   0.000000
   13       17.277209   0.000000
   14       17.277210   0.000000
   15       18.731510   0.000000
   16       20.207204   0.000000
 
  0.4000000E+00  0.0000000E+00  0.0000000E+00  0.2370370E-02
    1       -5.176483   1.000000
    2       -1.616261   1.000000
    3        3.039126   1.000000
    4        3.039126   1.000000
    5        4.942543   0.000000
    6        7.397220   0.000000
    7        7.397221   0.000000
    8       11.344328   0.000000
    9       12.519194   0.000000
   10       12.519195   0.000000
   11       12.583745   0.000000
   12       15.834624   0.000000
   13       16.042574   0.000000
   14       16.042574   0.000000
   15       19.145249   0.000000
   16       21.488421   0.000000
 
  0.4666667E+00  0.0000000E+00  0.0000000E+00  0.2370370E-02
    1       -4.883688   1.000000
    2       -2.097353   1.000000
    3        2.981842   1.000000
    4        2.981843   1.000000
    5        4.873708   0.000000
    6        7.369067   0.000000
    7        7.369068   0.000000
    8       11.408487   0.000000
    9       13.543073   0.000000
   10       13.552076   0.000000
   11       13.552076   0.000000
   12       14.759848   0.000000
   13       14.759848   0.000000
   14       14.876589   0.000000
   15       20.602073   0.000000
   16       22.553814   0.000000
 
  0.6666667E-01  0.6666667E-01  0.0000000E+00  0.1777778E-02
    1       -6.648329   1.000000
    2        3.323610   1.000000
    3        3.773060   1.000000
    4        3.773060   1.000000
    5        5.919958   0.000000
    6        6.311877   0.000000
    7        6.771170   0.000000
    8        6.771171   0.000000
    9       11.132357   0.000000
   10       11.519465   0.000000
   11       11.670241   0.000000
   12       14.727368   0.000000
   13       14.727368   0.000000
   14       14.928549   0.000000
   15       18.740070   0.000000
   16       23.772940   0.000000
 
  0.1333333E+00  0.6666667E-01  0.0000000E+00  0.7111111E-02
    1       -6.534689   1.000000
    2        2.484119   1.000000
    3        3.546886   1.000000
    4        3.640099   1.000000
    5        6.112804   0.000000
    6        6.368283   0.000000
    7        7.102911   0.000000
    8        7.377512   0.000000
    9       10.751832   0.000000
   10       11.616446   0.000000
   11       11.964475   0.000000
   12       14.452579   0.000000
   13       15.149418   0.000000
   14       15.683620   0.000000
   15       19.436075   0.000000
   16       22.612905   0.000000
 
  0.2000000E+00  0.6666667E-01  0.0000000E+00  0.7111111E-02
    1       -6.326808   1.000000
    2        1.441788   1.000000
    3        3.314847   1.000000
    4        3.443303   1.000000
    5        5.942866   0.000000
    6        6.671276   0.000000
    7        7.445529   0.000000
    8        8.289041   0.000000
    9       10.560036   0.000000
   10       11.510431   0.000000
   11       12.536525   0.000000
   12       14.246092   0.000000
   13       15.992814   0.000000
   14       16.732648   0.000000
   15       20.281250   0.000000
   16       21.086589   0.000000
 
  0.2666667E+00  0.6666667E-01  0.0000000E+00  0.7111111E-02
    1       -6.031787   1.000000
    2        0.407759   1.000000
    3        3.116971   1.000000
    4        3.203110   1.000000
    5        5.725784   0.000000
    6        6.983585   0.000000
    7        7.677090   0.000000
    8        9.115371   0.000000
    9       10.797913   0.000000
   10       11.623160   0.000000
   11       12.683891   0.000000
   12       14.746734   0.000000
   13       16.928248   0.000000
   14       17.785814   0.000000
   15       19.702959   0.000000
   16       19.737898   0.000000
 
  0.3333333E+00  0.6666667E-01  0.0000000E+00  0.7111111E-02
    1       -5.665007   1.000000
    2       -0.551800   1.000000
    3        2.972619   1.000000
    4        2.973701   1.000000
    5        5.527182   0.000000
    6        7.174021   0.000000
    7        7.741216   0.000000
    8        9.832537   0.000000
    9       11.522280   0.000000
   10       12.074505   0.000000
   11       12.499239   0.000000
   12       15.683870   0.000000
   13       17.004049   0.000000
   14       17.903287   0.000000
   15       19.197707   0.000000
   16       19.403526   0.000000
 
  0.4000000E+00  0.6666667E-01  0.0000000E+00  0.7111111E-02
    1       -5.262379   1.000000
    2       -1.379194   1.000000
    3        2.782938   1.000000
    4        2.890010   1.000000
    5        5.374682   0.000000
    6        7.243758   0.000000
    7        7.685723   0.000000
    8       10.591146   0.000000
    9       12.209106   0.000000
   10       12.671335   0.000000
   11       12.836939   0.000000
   12       15.742654   0.000000
   13       15.871298   0.000000
   14       17.401433   0.000000
   15       18.905291   0.000000
   16       20.523641   0.000000
 
  0.4666667E+00  0.6666667E-01  0.0000000E+00  0.7111111E-02
    1       -4.913789   1.000000
    2       -1.973546   1.000000
    3        2.644549   1.000000
    4        2.871338   1.000000
    5        5.281310   0.000000
    6        7.275928   0.000000
    7        7.592275   0.000000
    8       11.256273   0.000000
    9       12.411187   0.000000
   10       13.734217   0.000000
   11       13.824413   0.000000
   12       14.581856   0.000000
   13       14.778538   0.000000
   14       16.384655   0.000000
   15       20.059973   0.000000
   16       21.986356   0.000000
 
 -0.4666667E+00  0.6666667E-01  0.0000000E+00  0.7111111E-02
    1       -4.799993   1.000000
    2       -2.148894   1.000000
    3        2.566143   1.000000
    4        2.915212   1.000000
    5        5.252949   0.000000
    6        7.329006   0.000000
    7        7.513326   0.000000
    8       11.474431   0.000000
    9       12.958739   0.000000
   10       13.344944   0.000000
   11       13.874888   0.000000
   12       14.980544   0.000000
   13       14.999978   0.000000
   14       15.174975   0.000000
   15       21.026975   0.000000
   16       21.948031   0.000000
 
 -0.4000000E+00  0.6666667E-01  0.0000000E+00  0.7111111E-02
    1       -5.015065   1.000000
    2       -1.810029   1.000000
    3        2.552583   1.000000
    4        3.017723   1.000000
    5        5.291212   0.000000
    6        7.416516   0.000000
    7        7.462608   0.000000
    8       11.310291   0.000000
    9       12.269197   0.000000
   10       12.602179   0.000000
   11       14.004652   0.000000
   12       14.561908   0.000000
   13       16.110585   0.000000
   14       16.268284   0.000000
   15       19.523162   0.000000
   16       21.430504   0.000000
 
 -0.3333333E+00  0.6666667E-01  0.0000000E+00  0.7111111E-02
    1       -5.397458   1.000000
    2       -1.121178   1.000000
    3        2.607115   1.000000
    4        3.172406   1.000000
    5        5.393903   0.000000
    6        7.415985   0.000000
    7        7.510053   0.000000
    8       10.658365   0.000000
    9       11.396570   0.000000
   10       12.435531   0.000000
   11       12.954204   0.000000
   12       15.585151   0.000000
   13       16.764458   0.000000
   14       17.550509   0.000000
   15       18.701052   0.000000
   16       20.011027   0.000000
 
 -0.2666667E+00  0.6666667E-01  0.0000000E+00  0.7111111E-02
    1       -5.794317   1.000000
    2       -0.242671   1.000000
    3        2.731467   1.000000
    4        3.368834   1.000000
    5        5.553476   0.000000
    6        7.313627   0.000000
    7        7.531727   0.000000
    8        9.800412   0.000000
    9       10.810986   0.000000
   10       12.067128   0.000000
   11       12.613709   0.000000
   12       15.340910   0.000000
   13       17.095751   0.000000
   14       18.324397   0.000000
   15       18.784476   0.000000
   16       19.693098   0.000000
 
 -0.2000000E+00  0.6666667E-01  0.0000000E+00  0.7111111E-02
    1       -6.139604   1.000000
    2        0.743496   1.000000
    3        2.925747   1.000000
    4        3.588508   1.000000
    5        5.751165   0.000000
    6        7.101674   0.000000
    7        7.369514   0.000000
    8        8.938611   0.000000
    9       10.584501   0.000000
   10       11.532746   0.000000
   11       12.722205   0.000000
   12       14.480049   0.000000
   13       16.518431   0.000000
   14       17.665466   0.000000
   15       19.590990   0.000000
   16       20.480673   0.000000
 
 -0.1333333E+00  0.6666667E-01  0.0000000E+00  0.7111111E-02
    1       -6.406598   1.000000
    2        1.773971   1.000000
    3        3.190478   1.000000
    4        3.796327   1.000000
    5        5.935402   0.000000
    6        6.819366   0.000000
    7        7.002373   0.000000
    8        8.074707   0.000000
    9       10.698212   0.000000
   10       11.385431   0.000000
   11       12.360679   0.000000
   12       14.271738   0.000000
   13       15.530396   0.000000
   14       16.599063   0.000000
   15       19.980214   0.000000
   16       21.110993   0.000000
 
 -0.6666667E-01  0.6666667E-01  0.0000000E+00  0.3555556E-02
    1       -6.583443   1.000000
    2        2.727894   1.000000
    3        3.542204   1.000000
    4        3.930943   1.000000
    5        5.921221   0.000000
    6        6.600381   0.000000
    7        6.660651   0.000000
    8        7.252249   0.000000
    9       11.038609   0.000000
   10       11.467349   0.000000
   11       11.778657   0.000000
   12       14.480402   0.000000
   13       14.856068   0.000000
   14       15.627985   0.000000
   15       19.119079   0.000000
   16       22.666397   0.000000
 
  0.1333333E+00  0.1333333E+00  0.0000000E+00  0.1777778E-02
    1       -6.453050   1.000000
    2        2.272442   1.000000
    3        3.296346   1.000000
    4        3.296346   1.000000
    5        5.955823   0.000000
    6        6.824267   0.000000
    7        7.489045   0.000000
    8        7.489046   0.000000
    9       10.336095   0.000000
   10       11.895463   0.000000
   11       12.279213   0.000000
   12       15.080843   0.000000
   13       15.080843   0.000000
   14       15.529179   0.000000
   15       20.006547   0.000000
   16       22.185534   0.000000
 
  0.2000000E+00  0.1333333E+00  0.0000000E+00  0.7111111E-02
    1       -6.276152   1.000000
    2        1.530341   1.000000
    3        3.051623   1.000000
    4        3.067112   1.000000
    5        5.919490   0.000000
    6        6.907319   0.000000
    7        7.893947   0.000000
    8        8.103511   0.000000
    9       10.201118   0.000000
   10       11.967442   0.000000
   11       12.837321   0.000000
   12       14.879521   0.000000
   13       15.576328   0.000000
   14       16.423863   0.000000
   15       20.765827   0.000000
   16       20.985803   0.000000
 
  0.2666667E+00  0.1333333E+00  0.0000000E+00  0.7111111E-02
    1       -6.009359   1.000000
    2        0.615710   1.000000
    3        2.792510   1.000000
    4        2.849426   1.000000
    5        6.028986   0.000000
    6        6.934893   0.000000
    7        8.194851   0.000000
    8        8.492798   0.000000
    9       10.675862   0.000000
   10       12.087897   0.000000
   11       13.267262   0.000000
   12       14.925534   0.000000
   13       16.377165   0.000000
   14       17.545919   0.000000
   15       19.576251   0.000000
   16       19.778648   0.000000
 
  0.3333333E+00  0.1333333E+00  0.0000000E+00  0.7111111E-02
    1       -5.664208   1.000000
    2       -0.301991   1.000000
    3        2.496445   1.000000
    4        2.708132   1.000000
    5        6.008256   0.000000
    6        7.137411   0.000000
    7        8.307539   0.000000
    8        8.743696   0.000000
    9       11.619545   0.000000
   10       12.483457   0.000000
   11       13.198694   0.000000
   12       15.609416   0.000000
   13       16.726328   0.000000
   14       17.902907   0.000000
   15       18.869300   0.000000
   16       19.504019   0.000000
 
  0.4000000E+00  0.1333333E+00  0.0000000E+00  0.7111111E-02
    1       -5.266975   1.000000
    2       -1.139945   1.000000
    3        2.228252   1.000000
    4        2.635958   1.000000
    5        5.908533   0.000000
    6        7.289392   0.000000
    7        8.256307   0.000000
    8        9.276487   0.000000
    9       12.677859   0.000000
   10       13.003448   0.000000
   11       13.192572   0.000000
   12       15.757826   0.000000
   13       15.758213   0.000000
   14       17.881304   0.000000
   15       19.619481   0.000000
   16       19.715369   0.000000
 
  0.4666667E+00  0.1333333E+00  0.0000000E+00  0.7111111E-02
    1       -4.883160   1.000000
    2       -1.806824   1.000000
    3        2.013778   1.000000
    4        2.635185   1.000000
    5        5.828065   0.000000
    6        7.343178   0.000000
    7        8.128585   0.000000
    8       10.103926   0.000000
    9       12.641814   0.000000
   10       13.939349   0.000000
   11       14.139314   0.000000
   12       14.473705   0.000000
   13       14.895699   0.000000
   14       17.984047   0.000000
   15       19.616382   0.000000
   16       21.079467   0.000000
 
 -0.4666667E+00  0.1333333E+00  0.0000000E+00  0.7111111E-02
    1       -4.667777   1.000000
    2       -2.135572   1.000000
    3        1.866730   1.000000
    4        2.704035   1.000000
    5        5.800905   0.000000
    6        7.393048   0.000000
    7        7.991661   0.000000
    8       11.035605   0.000000
    9       12.268403   0.000000
   10       13.215182   0.000000
   11       14.117869   0.000000
   12       15.162532   0.000000
   13       15.284382   0.000000
   14       16.871515   0.000000
   15       20.983879   0.000000
   16       21.499518   0.000000
 
 -0.4000000E+00  0.1333333E+00  0.0000000E+00  0.7111111E-02
    1       -4.786282   1.000000
    2       -1.957058   1.000000
    3        1.796450   1.000000
    4        2.837170   1.000000
    5        5.834890   0.000000
    6        7.482313   0.000000
    7        7.871164   0.000000
    8       11.275889   0.000000
    9       12.103892   0.000000
   10       12.202083   0.000000
   11       14.018312   0.000000
   12       15.591671   0.000000
   13       16.406082   0.000000
   14       16.536656   0.000000
   15       19.689285   0.000000
   16       21.586537   0.000000
 
 -0.3333333E+00  0.1333333E+00  0.0000000E+00  0.7111111E-02
    1       -5.138481   1.000000
    2       -1.375178   1.000000
    3        1.811804   1.000000
    4        3.025094   1.000000
    5        5.926259   0.000000
    6        7.601190   0.000000
    7        7.752096   0.000000
    8       10.437218   0.000000
    9       11.191077   0.000000
   10       12.746000   0.000000
   11       14.370520   0.000000
   12       14.709011   0.000000
   13       17.119075   0.000000
   14       17.836166   0.000000
   15       18.601085   0.000000
   16       20.091510   0.000000
 
 -0.2666667E+00  0.1333333E+00  0.0000000E+00  0.7111111E-02
    1       -5.541367   1.000000
    2       -0.587355   1.000000
    3        1.924978   1.000000
    4        3.252035   1.000000
    5        6.061471   0.000000
    6        7.581728   0.000000
    7        7.672628   0.000000
    8        9.596390   0.000000
    9       10.563456   0.000000
   10       13.008891   0.000000
   11       13.443535   0.000000
   12       15.306956   0.000000
   13       16.736723   0.000000
   14       18.259230   0.000000
   15       18.881168   0.000000
   16       19.662619   0.000000
 
 -0.2000000E+00  0.1333333E+00  0.0000000E+00  0.7111111E-02
    1       -5.906843   1.000000
    2        0.282114   1.000000
    3        2.160191   1.000000
    4        3.491042   1.000000
    5        6.204953   0.000000
    6        7.315708   0.000000
    7        7.519360   0.000000
    8        9.005759   0.000000
    9       10.297393   0.000000
   10       12.333414   0.000000
   11       13.314050   0.000000
   12       14.902677   0.000000
   13       16.511634   0.000000
   14       18.179710   0.000000
   15       18.646892   0.000000
   16       20.452188   0.000000
 
 -0.1333333E+00  0.1333333E+00  0.0000000E+00  0.3555556E-02
    1       -6.200209   1.000000
    2        1.114419   1.000000
    3        2.570397   1.000000
    4        3.695512   1.000000
    5        6.234550   0.000000
    6        7.012747   0.000000
    7        7.157176   0.000000
    8        8.612492   0.000000
    9       10.374981   0.000000
   10       11.683720   0.000000
   11       12.941510   0.000000
   12       14.605692   0.000000
   13       15.700212   0.000000
   14       17.635656   0.000000
   15       19.510663   0.000000
   16       20.625993   0.000000
 
  0.2000000E+00  0.2000000E+00  0.0000000E+00  0.1777778E-02
    1       -6.130022   1.000000
    2        1.199185   1.000000
    3        2.794658   1.000000
    4        2.794658   1.000000
    5        5.552070   0.000000
    6        7.204302   0.000000
    7        8.386536   0.000000
    8        8.386536   0.000000
    9       10.095793   0.000000
   10       12.270388   0.000000
   11       13.330605   0.000000
   12       15.640277   0.000000
   13       15.640277   0.000000
   14       16.224255   0.000000
   15       20.631731   0.000000
   16       20.631731   0.000000
 
  0.2666667E+00  0.2000000E+00  0.0000000E+00  0.7111111E-02
    1       -5.892285   1.000000
    2        0.545509   1.000000
    3        2.515092   1.000000
    4        2.581584   1.000000
    5        5.542620   0.000000
    6        7.100168   0.000000
    7        8.664852   0.000000
    8        8.799331   0.000000
    9       10.614449   0.000000
   10       12.487398   0.000000
   11       13.885734   0.000000
   12       15.585830   0.000000
   13       16.137347   0.000000
   14       17.146549   0.000000
   15       19.529811   0.000000
   16       19.680666   0.000000
 
  0.3333333E+00  0.2000000E+00  0.0000000E+00  0.7111111E-02
    1       -5.571526   1.000000
    2       -0.225381   1.000000
    3        2.153158   1.000000
    4        2.431950   1.000000
    5        5.719331   0.000000
    6        7.171966   0.000000
    7        8.596205   0.000000
    8        9.015263   0.000000
    9       11.652000   0.000000
   10       12.864648   0.000000
   11       14.053506   0.000000
   12       15.889765   0.000000
   13       16.503504   0.000000
   14       17.727168   0.000000
   15       18.631315   0.000000
   16       19.273215   0.000000
 
  0.4000000E+00  0.2000000E+00  0.0000000E+00  0.7111111E-02
    1       -5.186811   1.000000
    2       -0.996656   1.000000
    3        1.788176   1.000000
    4        2.355069   1.000000
    5        5.803131   0.000000
    6        7.610572   0.000000
    7        8.508951   0.000000
    8        9.016555   0.000000
    9       12.829032   0.000000
   10       13.535313   0.000000
   11       13.778727   0.000000
   12       15.703317   0.000000
   13       16.074130   0.000000
   14       17.700690   0.000000
   15       19.144344   0.000000
   16       20.314356   0.000000
 
  0.4666667E+00  0.2000000E+00  0.0000000E+00  0.7111111E-02
    1       -4.784931   1.000000
    2       -1.673400   1.000000
    3        1.478140   1.000000
    4        2.354196   1.000000
    5        5.813587   0.000000
    6        8.010540   0.000000
    7        8.823102   0.000000
    8        8.889340   0.000000
    9       13.182354   0.000000
   10       14.111890   0.000000
   11       14.426764   0.000000
   12       14.467024   0.000000
   13       15.392946   0.000000
   14       18.765156   0.000000
   15       19.981120   0.000000
   16       20.311860   0.000000
 
 -0.4666667E+00  0.2000000E+00  0.0000000E+00  0.7111111E-02
    1       -4.488361   1.000000
    2       -2.108363   1.000000
    3        1.249631   1.000000
    4        2.428265   1.000000
    5        5.848304   0.000000
    6        8.049515   0.000000
    7        8.718842   0.000000
    8        9.743691   0.000000
    9       12.371377   0.000000
   10       13.168597   0.000000
   11       14.901428   0.000000
   12       15.320054   0.000000
   13       15.580522   0.000000
   14       18.585373   0.000000
   15       20.451550   0.000000
   16       21.247544   0.000000
 
 -0.4000000E+00  0.2000000E+00  0.0000000E+00  0.7111111E-02
    1       -4.500194   1.000000
    2       -2.089367   1.000000
    3        1.118696   1.000000
    4        2.572199   1.000000
    5        5.940402   0.000000
    6        8.064367   0.000000
    7        8.542382   0.000000
    8       10.833986   0.000000
    9       11.376945   0.000000
   10       12.034880   0.000000
   11       14.768739   0.000000
   12       16.382510   0.000000
   13       16.822862   0.000000
   14       17.515600   0.000000
   15       19.581126   0.000000
   16       21.554165   0.000000
 
 -0.3333333E+00  0.2000000E+00  0.0000000E+00  0.7111111E-02
    1       -4.808561   1.000000
    2       -1.634802   1.000000
    3        1.103163   1.000000
    4        2.775889   1.000000
    5        6.085460   0.000000
    6        8.120237   0.000000
    7        8.346289   0.000000
    8       10.282128   0.000000
    9       11.105571   0.000000
   10       12.042126   0.000000
   11       14.870226   0.000000
   12       15.974438   0.000000
   13       17.516033   0.000000
   14       18.127543   0.000000
   15       18.414144   0.000000
   16       20.473339   0.000000
 
 -0.2666667E+00  0.2000000E+00  0.0000000E+00  0.7111111E-02
    1       -5.210328   1.000000
    2       -0.977308   1.000000
    3        1.234282   1.000000
    4        3.021453   1.000000
    5        6.251937   0.000000
    6        8.072411   0.000000
    7        8.159407   0.000000
    8        9.385353   0.000000
    9       10.481026   0.000000
   10       13.064837   0.000000
   11       14.553390   0.000000
   12       15.425421   0.000000
   13       16.646969   0.000000
   14       18.585828   0.000000
   15       19.285578   0.000000
   16       19.515903   0.000000
 
 -0.2000000E+00  0.2000000E+00  0.0000000E+00  0.3555556E-02
    1       -5.591012   1.000000
    2       -0.297320   1.000000
    3        1.569309   1.000000
    4        3.277542   1.000000
    5        6.357565   0.000000
    6        7.693631   0.000000
    7        7.908159   0.000000
    8        8.975994   0.000000
    9       10.229332   0.000000
   10       13.414820   0.000000
   11       13.612397   0.000000
   12       15.226576   0.000000
   13       16.580534   0.000000
   14       17.686913   0.000000
   15       19.436670   0.000000
   16       20.080439   0.000000
 
  0.2666667E+00  0.2666667E+00  0.0000000E+00  0.1777778E-02
    1       -5.683121   1.000000
    2        0.142061   1.000000
    3        2.354626   1.000000
    4        2.354627   1.000000
    5        5.203685   0.000000
    6        6.789068   0.000000
    7        9.370345   0.000000
    8        9.370345   0.000000
    9       10.799080   0.000000
   10       12.794331   0.000000
   11       14.502621   0.000000
   12       16.271193   0.000000
   13       16.271193   0.000000
   14       17.066663   0.000000
   15       19.326818   0.000000
   16       19.326818   0.000000
 
  0.3333333E+00  0.2666667E+00  0.0000000E+00  0.7111111E-02
    1       -5.388121   1.000000
    2       -0.443346   1.000000
    3        2.062604   1.000000
    4        2.190527   1.000000
    5        5.242584   0.000000
    6        6.582351   0.000000
    7        9.558348   0.000000
    8        9.761028   0.000000
    9       11.651925   0.000000
   10       13.166784   0.000000
   11       14.868769   0.000000
   12       16.424451   0.000000
   13       16.424682   0.000000
   14       17.574045   0.000000
   15       18.656351   0.000000
   16       19.038734   0.000000
 
  0.4000000E+00  0.2666667E+00  0.0000000E+00  0.7111111E-02
    1       -5.020878   1.000000
    2       -1.084052   1.000000
    3        1.639579   1.000000
    4        2.100245   1.000000
    5        5.437905   0.000000
    6        6.747183   0.000000
    7        9.444673   0.000000
    8        9.882434   0.000000
    9       12.837095   0.000000
   10       13.801665   0.000000
   11       14.530871   0.000000
   12       15.707743   0.000000
   13       16.845060   0.000000
   14       17.361867   0.000000
   15       18.845891   0.000000
   16       19.926218   0.000000
 
  0.4666667E+00  0.2666667E+00  0.0000000E+00  0.7111111E-02
    1       -4.614169   1.000000
    2       -1.697439   1.000000
    3        1.218868   1.000000
    4        2.088281   1.000000
    5        5.531500   0.000000
    6        7.397331   0.000000
    7        9.293819   0.000000
    8        9.797605   0.000000
    9       13.533440   0.000000
   10       14.249403   0.000000
   11       14.452355   0.000000
   12       14.734655   0.000000
   13       16.381567   0.000000
   14       18.363172   0.000000
   15       19.590966   0.000000
   16       20.640727   0.000000
 
 -0.4666667E+00  0.2666667E+00  0.0000000E+00  0.7111111E-02
    1       -4.259319   1.000000
    2       -2.168293   1.000000
    3        0.882755   1.000000
    4        2.154606   1.000000
    5        5.601908   0.000000
    6        8.349231   0.000000
    7        9.180699   0.000000
    8        9.615055   0.000000
    9       12.516019   0.000000
   10       13.207648   0.000000
   11       15.409945   0.000000
   12       15.837841   0.000000
   13       16.079261   0.000000
   14       19.578663   0.000000
   15       20.048676   0.000000
   16       20.164640   0.000000
 
 -0.4000000E+00  0.2666667E+00  0.0000000E+00  0.7111111E-02
    1       -4.168499   1.000000
    2       -2.276842   1.000000
    3        0.673237   1.000000
    4        2.295069   1.000000
    5        5.725581   0.000000
    6        9.053963   0.000000
    7        9.385380   0.000000
    8        9.538350   0.000000
    9       11.350413   0.000000
   10       12.076879   0.000000
   11       15.974590   0.000000
   12       16.528381   0.000000
   13       17.084871   0.000000
   14       19.138231   0.000000
   15       19.402919   0.000000
   16       20.158690   0.000000
 
 -0.3333333E+00  0.2666667E+00  0.0000000E+00  0.7111111E-02
    1       -4.427236   1.000000
    2       -1.951488   1.000000
    3        0.626654   1.000000
    4        2.500312   1.000000
    5        5.910351   0.000000