<?xml version="1.0" encoding="ISO-8859-1"?>
<modeling>
 <generator>
  <i name="program" type="string">vasp </i>
  <i name="version" type="string">5.4.1  </i>
  <i name="subversion" type="string">24Jun15 (build May 02 2016 14:41:14) complex                          parallel </i>
  <i name="platform" type="string">IFC91_ompi </i>
  <i name="date" type="string">2022 05 07 </i>
  <i name="time" type="string">11:10:52 </i>
 </generator>
 <incar>
  <i type="string" name="SYSTEM"> Silicon</i>
  <i type="int" name="ISTART">     0</i>
  <i type="string" name="PREC">normal</i>
  <i type="string" name="ALGO"> Normal</i>
  <i type="int" name="ICHARG">     2</i>
  <i type="int" name="NELM">   100</i>
  <i type="int" name="NELMIN">     4</i>
  <i name="EDIFF">      0.00000100</i>
  <i name="ENCUT">    500.00000000</i>
  <i type="logical" name="LREAL"> F  </i>
  <i type="int" name="ISMEAR">     0</i>
  <i name="SIGMA">      0.10000000</i>
  <v type="int" name="KPOINT_BSE">    -1     0     0     0</v>
  <i type="int" name="NELM">   100</i>
 </incar>
 <kpoints>
  <generation param="Monkhorst-Pack">
   <v type="int" name="divisions">      15       15       15 </v>
   <v name="usershift">      0.00000000       0.00000000       0.00000000 </v>
   <v name="genvec1">      0.06666667       0.00000000       0.00000000 </v>
   <v name="genvec2">      0.00000000       0.06666667       0.00000000 </v>
   <v name="genvec3">      0.00000000       0.00000000       0.06666667 </v>
   <v name="shift">      0.00000000       0.00000000       0.00000000 </v>
  </generation>
  <varray name="kpointlist" >
   <v>       0.00000000       0.00000000       0.00000000 </v>
   <v>       0.06666667       0.00000000       0.00000000 </v>
   <v>       0.13333333       0.00000000       0.00000000 </v>
   <v>       0.20000000       0.00000000       0.00000000 </v>
   <v>       0.26666667       0.00000000       0.00000000 </v>
   <v>       0.33333333       0.00000000       0.00000000 </v>
   <v>       0.40000000       0.00000000       0.00000000 </v>
   <v>       0.46666667       0.00000000       0.00000000 </v>
   <v>       0.06666667       0.06666667       0.00000000 </v>
   <v>       0.13333333       0.06666667       0.00000000 </v>
   <v>       0.20000000       0.06666667       0.00000000 </v>
   <v>       0.26666667       0.06666667       0.00000000 </v>
   <v>       0.33333333       0.06666667       0.00000000 </v>
   <v>       0.40000000       0.06666667       0.00000000 </v>
   <v>       0.46666667       0.06666667       0.00000000 </v>
   <v>      -0.46666667       0.06666667       0.00000000 </v>
   <v>      -0.40000000       0.06666667       0.00000000 </v>
   <v>      -0.33333333       0.06666667       0.00000000 </v>
   <v>      -0.26666667       0.06666667       0.00000000 </v>
   <v>      -0.20000000       0.06666667       0.00000000 </v>
   <v>      -0.13333333       0.06666667       0.00000000 </v>
   <v>      -0.06666667       0.06666667       0.00000000 </v>
   <v>       0.13333333       0.13333333       0.00000000 </v>
   <v>       0.20000000       0.13333333       0.00000000 </v>
   <v>       0.26666667       0.13333333       0.00000000 </v>
   <v>       0.33333333       0.13333333       0.00000000 </v>
   <v>       0.40000000       0.13333333       0.00000000 </v>
   <v>       0.46666667       0.13333333       0.00000000 </v>
   <v>      -0.46666667       0.13333333       0.00000000 </v>
   <v>      -0.40000000       0.13333333       0.00000000 </v>
   <v>      -0.33333333       0.13333333       0.00000000 </v>
   <v>      -0.26666667       0.13333333       0.00000000 </v>
   <v>      -0.20000000       0.13333333       0.00000000 </v>
   <v>      -0.13333333       0.13333333       0.00000000 </v>
   <v>       0.20000000       0.20000000       0.00000000 </v>
   <v>       0.26666667       0.20000000       0.00000000 </v>
   <v>       0.33333333       0.20000000       0.00000000 </v>
   <v>       0.40000000       0.20000000       0.00000000 </v>
   <v>       0.46666667       0.20000000       0.00000000 </v>
   <v>      -0.46666667       0.20000000       0.00000000 </v>
   <v>      -0.40000000       0.20000000       0.00000000 </v>
   <v>      -0.33333333       0.20000000       0.00000000 </v>
   <v>      -0.26666667       0.20000000       0.00000000 </v>
   <v>      -0.20000000       0.20000000       0.00000000 </v>
   <v>       0.26666667       0.26666667       0.00000000 </v>
   <v>       0.33333333       0.26666667       0.00000000 </v>
   <v>       0.40000000       0.26666667       0.00000000 </v>
   <v>       0.46666667       0.26666667       0.00000000 </v>
   <v>      -0.46666667       0.26666667       0.00000000 </v>
   <v>      -0.40000000       0.26666667       0.00000000 </v>
   <v>      -0.33333333       0.26666667       0.00000000 </v>
   <v>      -0.26666667       0.26666667       0.00000000 </v>
   <v>       0.33333333       0.33333333       0.00000000 </v>
   <v>       0.40000000       0.33333333       0.00000000 </v>
   <v>       0.46666667       0.33333333       0.00000000 </v>
   <v>      -0.46666667       0.33333333       0.00000000 </v>
   <v>      -0.40000000       0.33333333       0.00000000 </v>
   <v>      -0.33333333       0.33333333       0.00000000 </v>
   <v>       0.40000000       0.40000000       0.00000000 </v>
   <v>       0.46666667       0.40000000       0.00000000 </v>
   <v>      -0.46666667       0.40000000       0.00000000 </v>
   <v>      -0.40000000       0.40000000       0.00000000 </v>
   <v>       0.46666667       0.46666667       0.00000000 </v>
   <v>      -0.46666667       0.46666667       0.00000000 </v>
   <v>       0.20000000       0.13333333       0.06666667 </v>
   <v>       0.26666667       0.13333333       0.06666667 </v>
   <v>       0.33333333       0.13333333       0.06666667 </v>
   <v>       0.40000000       0.13333333       0.06666667 </v>
   <v>       0.46666667       0.13333333       0.06666667 </v>
   <v>      -0.46666667       0.13333333       0.06666667 </v>
   <v>       0.26666667       0.20000000       0.06666667 </v>
   <v>       0.33333333       0.20000000       0.06666667 </v>
   <v>       0.40000000       0.20000000       0.06666667 </v>
   <v>       0.46666667       0.20000000       0.06666667 </v>
   <v>      -0.46666667       0.20000000       0.06666667 </v>
   <v>      -0.40000000       0.20000000       0.06666667 </v>
   <v>      -0.33333333       0.20000000       0.06666667 </v>
   <v>      -0.26666667       0.20000000       0.06666667 </v>
   <v>      -0.20000000       0.20000000       0.06666667 </v>
   <v>      -0.13333333       0.20000000       0.06666667 </v>
   <v>       0.33333333       0.26666667       0.06666667 </v>
   <v>       0.40000000       0.26666667       0.06666667 </v>
   <v>       0.46666667       0.26666667       0.06666667 </v>
   <v>      -0.46666667       0.26666667       0.06666667 </v>
   <v>      -0.40000000       0.26666667       0.06666667 </v>
   <v>      -0.33333333       0.26666667       0.06666667 </v>
   <v>      -0.26666667       0.26666667       0.06666667 </v>
   <v>      -0.20000000       0.26666667       0.06666667 </v>
   <v>       0.40000000       0.33333333       0.06666667 </v>
   <v>       0.46666667       0.33333333       0.06666667 </v>
   <v>      -0.46666667       0.33333333       0.06666667 </v>
   <v>      -0.40000000       0.33333333       0.06666667 </v>
   <v>      -0.33333333       0.33333333       0.06666667 </v>
   <v>      -0.26666667       0.33333333       0.06666667 </v>
   <v>       0.46666667       0.40000000       0.06666667 </v>
   <v>      -0.46666667       0.40000000       0.06666667 </v>
   <v>      -0.40000000       0.40000000       0.06666667 </v>
   <v>      -0.33333333       0.40000000       0.06666667 </v>
   <v>      -0.46666667       0.46666667       0.06666667 </v>
   <v>      -0.40000000       0.46666667       0.06666667 </v>
   <v>       0.40000000       0.26666667       0.13333333 </v>
   <v>       0.46666667       0.26666667       0.13333333 </v>
   <v>      -0.46666667       0.26666667       0.13333333 </v>
   <v>      -0.40000000       0.26666667       0.13333333 </v>
   <v>       0.46666667       0.33333333       0.13333333 </v>
   <v>      -0.46666667       0.33333333       0.13333333 </v>
   <v>      -0.40000000       0.33333333       0.13333333 </v>
   <v>      -0.33333333       0.33333333       0.13333333 </v>
   <v>      -0.26666667       0.33333333       0.13333333 </v>
   <v>      -0.20000000       0.33333333       0.13333333 </v>
   <v>      -0.46666667       0.40000000       0.13333333 </v>
   <v>      -0.40000000       0.40000000       0.13333333 </v>
   <v>      -0.33333333       0.40000000       0.13333333 </v>
   <v>      -0.26666667       0.40000000       0.13333333 </v>
   <v>      -0.40000000       0.46666667       0.13333333 </v>
   <v>      -0.33333333       0.46666667       0.13333333 </v>
   <v>      -0.40000000       0.40000000       0.20000000 </v>
   <v>      -0.33333333       0.40000000       0.20000000 </v>
   <v>      -0.33333333       0.46666667       0.20000000 </v>
   <v>      -0.26666667       0.46666667       0.20000000 </v>
  </varray>
  <varray name="weights" >
   <v>       0.00029630 </v>
   <v>       0.00237037 </v>
   <v>       0.00237037 </v>
   <v>       0.00237037 </v>
   <v>       0.00237037 </v>
   <v>       0.00237037 </v>
   <v>       0.00237037 </v>
   <v>       0.00237037 </v>
   <v>       0.00177778 </v>
   <v>       0.00711111 </v>
   <v>       0.00711111 </v>
   <v>       0.00711111 </v>
   <v>       0.00711111 </v>
   <v>       0.00711111 </v>
   <v>       0.00711111 </v>
   <v>       0.00711111 </v>
   <v>       0.00711111 </v>
   <v>       0.00711111 </v>
   <v>       0.00711111 </v>
   <v>       0.00711111 </v>
   <v>       0.00711111 </v>
   <v>       0.00355556 </v>
   <v>       0.00177778 </v>
   <v>       0.00711111 </v>
   <v>       0.00711111 </v>
   <v>       0.00711111 </v>
   <v>       0.00711111 </v>
   <v>       0.00711111 </v>
   <v>       0.00711111 </v>
   <v>       0.00711111 </v>
   <v>       0.00711111 </v>
   <v>       0.00711111 </v>
   <v>       0.00711111 </v>
   <v>       0.00355556 </v>
   <v>       0.00177778 </v>
   <v>       0.00711111 </v>
   <v>       0.00711111 </v>
   <v>       0.00711111 </v>
   <v>       0.00711111 </v>
   <v>       0.00711111 </v>
   <v>       0.00711111 </v>
   <v>       0.00711111 </v>
   <v>       0.00711111 </v>
   <v>       0.00355556 </v>
   <v>       0.00177778 </v>
   <v>       0.00711111 </v>
   <v>       0.00711111 </v>
   <v>       0.00711111 </v>
   <v>       0.00711111 </v>
   <v>       0.00711111 </v>
   <v>       0.00711111 </v>
   <v>       0.00355556 </v>
   <v>       0.00177778 </v>
   <v>       0.00711111 </v>
   <v>       0.00711111 </v>
   <v>       0.00711111 </v>
   <v>       0.00711111 </v>
   <v>       0.00355556 </v>
   <v>       0.00177778 </v>
   <v>       0.00711111 </v>
   <v>       0.00711111 </v>
   <v>       0.00355556 </v>
   <v>       0.00177778 </v>
   <v>       0.00355556 </v>
   <v>       0.00711111 </v>
   <v>       0.01422222 </v>
   <v>       0.01422222 </v>
   <v>       0.01422222 </v>
   <v>       0.01422222 </v>
   <v>       0.01422222 </v>
   <v>       0.00711111 </v>
   <v>       0.01422222 </v>
   <v>       0.01422222 </v>
   <v>       0.01422222 </v>
   <v>       0.01422222 </v>
   <v>       0.01422222 </v>
   <v>       0.01422222 </v>
   <v>       0.01422222 </v>
   <v>       0.01422222 </v>
   <v>       0.00711111 </v>
   <v>       0.00711111 </v>
   <v>       0.01422222 </v>
   <v>       0.01422222 </v>
   <v>       0.01422222 </v>
   <v>       0.01422222 </v>
   <v>       0.01422222 </v>
   <v>       0.01422222 </v>
   <v>       0.00711111 </v>
   <v>       0.00711111 </v>
   <v>       0.01422222 </v>
   <v>       0.01422222 </v>
   <v>       0.01422222 </v>
   <v>       0.01422222 </v>
   <v>       0.00711111 </v>
   <v>       0.00711111 </v>
   <v>       0.01422222 </v>
   <v>       0.01422222 </v>
   <v>       0.00711111 </v>
   <v>       0.00711111 </v>
   <v>       0.00711111 </v>
   <v>       0.00711111 </v>
   <v>       0.01422222 </v>
   <v>       0.01422222 </v>
   <v>       0.01422222 </v>
   <v>       0.00711111 </v>
   <v>       0.01422222 </v>
   <v>       0.01422222 </v>
   <v>       0.01422222 </v>
   <v>       0.01422222 </v>
   <v>       0.00711111 </v>
   <v>       0.00711111 </v>
   <v>       0.01422222 </v>
   <v>       0.01422222 </v>
   <v>       0.00711111 </v>
   <v>       0.00711111 </v>
   <v>       0.00711111 </v>
   <v>       0.00711111 </v>
   <v>       0.01422222 </v>
   <v>       0.00711111 </v>
   <v>       0.00711111 </v>
  </varray>
 </kpoints>
 <parameters>
  <separator name="general" >
   <i type="string" name="SYSTEM">Silicon</i>
   <i type="logical" name="LCOMPAT"> F  </i>
  </separator>
  <separator name="electronic" >
   <i type="string" name="PREC">normal</i>
   <i name="ENMAX">    500.00000000</i>
   <i name="ENAUG">    322.06900000</i>
   <i name="EDIFF">      0.00000100</i>
   <i type="int" name="IALGO">    38</i>
   <i type="int" name="IWAVPR">    10</i>
   <i type="int" name="NBANDS">    16</i>
   <i name="NELECT">      8.00000000</i>
   <i type="int" name="TURBO">     0</i>
   <i type="int" name="IRESTART">     0</i>
   <i type="int" name="NREBOOT">     0</i>
   <i type="int" name="NMIN">     0</i>
   <i name="EREF">      0.00000000</i>
   <separator name="electronic smearing" >
    <i type="int" name="ISMEAR">     0</i>
    <i name="SIGMA">      0.10000000</i>
    <i name="KSPACING">      0.50000000</i>
    <i type="logical" name="KGAMMA"> T  </i>
   </separator>
   <separator name="electronic projectors" >
    <i type="logical" name="LREAL"> F  </i>
    <v name="ROPT">      0.00000000</v>
    <i type="int" name="LMAXPAW">  -100</i>
    <i type="int" name="LMAXMIX">     2</i>
    <i type="logical" name="NLSPLINE"> F  </i>
   </separator>
   <separator name="electronic startup" >
    <i type="int" name="ISTART">     0</i>
    <i type="int" name="ICHARG">     2</i>
    <i type="int" name="INIWAV">     1</i>
   </separator>
   <separator name="electronic spin" >
    <i type="int" name="ISPIN">     1</i>
    <i type="logical" name="LNONCOLLINEAR"> F  </i>
    <v name="MAGMOM">      1.00000000      1.00000000</v>
    <i name="NUPDOWN">     -1.00000000</i>
    <i type="logical" name="LSORBIT"> F  </i>
    <v name="SAXIS">      0.00000000      0.00000000      1.00000000</v>
    <i type="logical" name="LSPIRAL"> F  </i>
    <v name="QSPIRAL">      0.00000000      0.00000000      0.00000000</v>
    <i type="logical" name="LZEROZ"> F  </i>
   </separator>
   <separator name="electronic exchange-correlation" >
    <i type="logical" name="LASPH"> F  </i>
    <i type="logical" name="LMETAGGA"> F  </i>
   </separator>
   <separator name="electronic convergence" >
    <i type="int" name="NELM">   100</i>
    <i type="int" name="NELMDL">    -5</i>
    <i type="int" name="NELMIN">     4</i>
    <i name="ENINI">    500.00000000</i>
    <separator name="electronic convergence detail" >
     <i type="logical" name="LDIAG"> T  </i>
     <i type="logical" name="LSUBROT"> F  </i>
     <i name="WEIMIN">      0.00000000</i>
     <i name="EBREAK">      0.00000002</i>
     <i name="DEPER">      0.30000000</i>
     <i type="int" name="NRMM">     4</i>
     <i name="TIME">      0.40000000</i>
    </separator>
   </separator>
   <separator name="electronic mixer" >
    <i name="AMIX">      0.40000000</i>
    <i name="BMIX">      1.00000000</i>
    <i name="AMIN">      0.10000000</i>
    <i name="AMIX_MAG">      1.60000000</i>
    <i name="BMIX_MAG">      1.00000000</i>
    <separator name="electronic mixer details" >
     <i type="int" name="IMIX">     4</i>
     <i type="logical" name="MIXFIRST"> F  </i>
     <i type="int" name="MAXMIX">   -45</i>
     <i name="WC">    100.00000000</i>
     <i type="int" name="INIMIX">     1</i>
     <i type="int" name="MIXPRE">     1</i>
     <i type="int" name="MREMOVE">     5</i>
    </separator>
   </separator>
   <separator name="electronic dipolcorrection" >
    <i type="logical" name="LDIPOL"> F  </i>
    <i type="logical" name="LMONO"> F  </i>
    <i type="int" name="IDIPOL">     0</i>
    <i name="EPSILON">      1.00000000</i>
    <v name="DIPOL">   -100.00000000   -100.00000000   -100.00000000</v>
    <i name="EFIELD">      0.00000000</i>
   </separator>
  </separator>
  <separator name="grids" >
   <i type="int" name="NGX">    24</i>
   <i type="int" name="NGY">    24</i>
   <i type="int" name="NGZ">    24</i>
   <i type="int" name="NGXF">    48</i>
   <i type="int" name="NGYF">    48</i>
   <i type="int" name="NGZF">    48</i>
   <i type="logical" name="ADDGRID"> F  </i>
  </separator>
  <separator name="ionic" >
   <i type="int" name="NSW">     0</i>
   <i type="int" name="IBRION">    -1</i>
   <i type="int" name="ISIF">     2</i>
   <i name="PSTRESS">      0.00000000</i>
   <i name="EDIFFG">      0.00001000</i>
   <i type="int" name="NFREE">     0</i>
   <i name="POTIM">      0.50000000</i>
   <i name="SMASS">     -3.00000000</i>
   <i name="SCALEE">      1.00000000</i>
  </separator>
  <separator name="ionic md" >
   <i name="TEBEG">      0.00010000</i>
   <i name="TEEND">      0.00010000</i>
   <i type="int" name="NBLOCK">     1</i>
   <i type="int" name="KBLOCK">     1</i>
   <i type="int" name="NPACO">   256</i>
   <i name="APACO">     16.00000000</i>
  </separator>
  <separator name="symmetry" >
   <i type="int" name="ISYM">     2</i>
   <i name="SYMPREC">      0.00001000</i>
  </separator>
  <separator name="dos" >
   <i type="logical" name="LORBIT"> F  </i>
   <v name="RWIGS">     -1.00000000</v>
   <i type="int" name="NEDOS">   301</i>
   <i name="EMIN">     10.00000000</i>
   <i name="EMAX">    -10.00000000</i>
   <i name="EFERMI">      0.00000000</i>
  </separator>
  <separator name="writing" >
   <i type="int" name="NWRITE">     2</i>
   <i type="logical" name="LWAVE"> T  </i>
   <i type="logical" name="LCHARG"> T  </i>
   <i type="logical" name="LPARD"> F  </i>
   <i type="logical" name="LVTOT"> F  </i>
   <i type="logical" name="LVHAR"> F  </i>
   <i type="logical" name="LELF"> F  </i>
   <i type="logical" name="LOPTICS"> F  </i>
   <v name="STM">      0.00000000      0.00000000      0.00000000      0.00000000      0.00000000      0.00000000      0.00000000</v>
  </separator>
  <separator name="performance" >
   <i type="int" name="NPAR">    16</i>
   <i type="int" name="NSIM">     4</i>
   <i type="int" name="NBLK">    -1</i>
   <i type="logical" name="LPLANE"> T  </i>
   <i type="logical" name="LSCALAPACK"> T  </i>
   <i type="logical" name="LSCAAWARE"> F  </i>
   <i type="logical" name="LSCALU"> F  </i>
   <i type="logical" name="LASYNC"> F  </i>
   <i type="logical" name="LORBITALREAL"> F  </i>
  </separator>
  <separator name="miscellaneous" >
   <i type="int" name="IDIOT">     3</i>
   <i type="logical" name="LMUSIC"> F  </i>
   <v name="POMASS">     28.08500000</v>
   <v name="DARWINR">      0.00000000</v>
   <v name="DARWINV">      1.00000000</v>
   <i type="logical" name="LCORR"> T  </i>
  </separator>
  <i type="logical" name="GGA_COMPAT"> T  </i>
  <i type="logical" name="LBERRY"> F  </i>
  <i type="int" name="ICORELEVEL">     0</i>
  <i type="logical" name="LDAU"> F  </i>
  <i type="int" name="I_CONSTRAINED_M">     0</i>
  <separator name="electronic exchange-correlation" >
   <i type="string" name="GGA">--</i>
   <i type="int" name="VOSKOWN">     0</i>
   <i type="logical" name="LHFCALC"> F  </i>
   <i type="string" name="PRECFOCK"></i>
   <i type="logical" name="LSYMGRAD"> F  </i>
   <i type="logical" name="LHFONE"> F  </i>
   <i type="logical" name="LRHFCALC"> F  </i>
   <i type="logical" name="LTHOMAS"> F  </i>
   <i type="logical" name="LMODELHF"> F  </i>
   <i name="ENCUT4O">     -1.00000000</i>
   <i type="int" name="EXXOEP">     0</i>
   <i type="int" name="FOURORBIT">     0</i>
   <i name="AEXX">      0.00000000</i>
   <i name="HFALPHA">      0.00000000</i>
   <i name="MCALPHA">      0.00000000</i>
   <i name="ALDAX">      1.00000000</i>
   <i name="AGGAX">      1.00000000</i>
   <i name="ALDAC">      1.00000000</i>
   <i name="AGGAC">      1.00000000</i>
   <i type="int" name="NKREDX">     1</i>
   <i type="int" name="NKREDY">     1</i>
   <i type="int" name="NKREDZ">     1</i>
   <i type="logical" name="SHIFTRED"> F  </i>
   <i type="logical" name="ODDONLY"> F  </i>
   <i type="logical" name="EVENONLY"> F  </i>
   <i type="int" name="LMAXFOCK">     0</i>
   <i type="int" name="NMAXFOCKAE">     0</i>
   <i type="logical" name="LFOCKAEDFT"> F  </i>
   <i name="HFSCREEN">      0.00000000</i>
   <i name="HFSCREENC">      0.00000000</i>
   <i type="int" name="NBANDSGWLOW">     0</i>
  </separator>
  <separator name="vdW DFT" >
   <i type="logical" name="LUSE_VDW"> F  </i>
   <i name="Zab_VDW">     -0.84910000</i>
   <i name="PARAM1">      0.12340000</i>
   <i name="PARAM2">      1.00000000</i>
   <i name="PARAM3">      0.00000000</i>
  </separator>
  <separator name="model GW" >
   <i type="int" name="MODEL_GW">     0</i>
   <i name="MODEL_EPS0">     14.63340000</i>
   <i name="MODEL_ALPHA">      1.00000000</i>
  </separator>
  <separator name="linear response parameters" >
   <i type="logical" name="LEPSILON"> F  </i>
   <i type="logical" name="LRPA"> F  </i>
   <i type="logical" name="LNABLA"> F  </i>
   <i type="logical" name="LVEL"> F  </i>
   <i type="int" name="KINTER">     0</i>
   <i name="CSHIFT">      0.10000000</i>
   <i name="OMEGAMAX">     -1.00000000</i>
   <i name="DEG_THRESHOLD">      0.00200000</i>
  </separator>
  <separator name="orbital magnetization" >
   <i type="logical" name="NUCIND"> F  </i>
   <v name="MAGPOS">      0.00000000      0.00000000      0.00000000</v>
   <i type="logical" name="LNICSALL"> T  </i>
   <i type="logical" name="ORBITALMAG"> F  </i>
   <i type="logical" name="LMAGBLOCH"> F  </i>
   <i type="logical" name="LCHIMAG"> F  </i>
   <i type="logical" name="LGAUGE"> T  </i>
   <i type="int" name="MAGATOM">     0</i>
   <v name="MAGDIPOL">      0.00000000      0.00000000      0.00000000</v>
   <v name="AVECCONST">      0.00000000      0.00000000      0.00000000</v>
  </separator>
  <separator name="response functions" >
   <i type="logical" name="LADDER"> F  </i>
   <i type="logical" name="LFXC"> F  </i>
   <i type="logical" name="LHARTREE"> T  </i>
   <i type="int" name="IBSE">     0</i>
   <v type="int" name="KPOINT">    -1     0     0     0</v>
   <i type="logical" name="LTCTE"> F  </i>
   <i type="logical" name="LTETE"> F  </i>
   <i type="logical" name="LTRIPLET"> F  </i>
   <i type="logical" name="LFXCEPS"> F  </i>
   <i type="logical" name="LFXHEG"> F  </i>
   <i type="int" name="NATURALO">     0</i>
   <i type="logical" name="L2ORDER"> F  </i>
   <i type="logical" name="LUSEW"> F  </i>
   <i name="ENCUTGW">     -2.00000000</i>
   <i name="ENCUTGWSOFT">     -2.00000000</i>
   <i name="ENCUTLF">     -1.00000000</i>
   <i type="int" name="LMAXMP2">    -1</i>
   <i name="SCISSOR">      0.00000000</i>
   <i type="int" name="NOMEGA">     0</i>
   <i type="int" name="NOMEGAR">     0</i>
   <i type="int" name="NBANDSGW">    -1</i>
   <i type="int" name="NBANDSO">    -1</i>
   <i type="int" name="NBANDSV">    -1</i>
   <i type="int" name="NELM">   100</i>
   <i type="int" name="NELMHF">     1</i>
   <i type="int" name="DIM">     3</i>
   <i type="int" name="ANTIRES">     0</i>
   <i name="OMEGAMAX">    -30.00000000</i>
   <i name="OMEGAMIN">    -30.00000000</i>
   <i name="OMEGATL">   -200.00000000</i>
   <i type="int" name="OMEGAGRID">     0</i>
   <i name="CSHIFT">     -0.10000000</i>
   <i type="logical" name="SELFENERGY"> F  </i>
   <i type="logical" name="LSPECTRAL"> F  </i>
   <i type="logical" name="LSPECTRALGW"> F  </i>
   <i type="logical" name="LSINGLES"> F  </i>
   <i type="logical" name="LFERMIGW"> F  </i>
   <i type="logical" name="ODDONLYGW"> F  </i>
   <i type="logical" name="EVENONLYGW"> F  </i>
   <i type="int" name="NKREDLFX">     1</i>
   <i type="int" name="NKREDLFY">     1</i>
   <i type="int" name="NKREDLFZ">     1</i>
   <i type="int" name="MAXMEM">  1800</i>
   <i type="int" name="TELESCOPE">     0</i>
   <i type="int" name="TAUPAR">     1</i>
   <i type="int" name="OMEGAPAR">    -1</i>
   <i name="LAMBDA">      1.00000000</i>
  </separator>
  <separator name="External order field" >
   <i name="OFIELD_KAPPA">      0.00000000</i>
   <v name="OFIELD_K">      0.00000000      0.00000000      0.00000000</v>
   <i name="OFIELD_Q6_NEAR">      0.00000000</i>
   <i name="OFIELD_Q6_FAR">      0.00000000</i>
   <i name="OFIELD_A">      0.00000000</i>
  </separator>
 </parameters>
 <atominfo>
  <atoms>       2 </atoms>
  <types>       1 </types>
  <array name="atoms" >
   <dimension dim="1">ion</dimension>
   <field type="string">element</field>
   <field type="int">atomtype</field>
   <set>
    <rc><c>Si</c><c>   1</c></rc>
    <rc><c>Si</c><c>   1</c></rc>
   </set>
  </array>
  <array name="atomtypes" >
   <dimension dim="1">type</dimension>
   <field type="int">atomspertype</field>
   <field type="string">element</field>
   <field>mass</field>
   <field>valence</field>
   <field type="string">pseudopotential</field>
   <set>
    <rc><c>   2</c><c>Si</c><c>     28.08500000</c><c>      4.00000000</c><c> PAW_PBE Si 05Jan2001                   </c></rc>
   </set>
  </array>
 </atominfo>
 <structure name="initialpos" >
  <crystal>
   <varray name="basis" >
    <v>       0.00000000       2.90000000       2.90000000 </v>
    <v>       2.90000000       0.00000000       2.90000000 </v>
    <v>       2.90000000       2.90000000       0.00000000 </v>
   </varray>
   <i name="volume">     48.77800000 </i>
   <varray name="rec_basis" >
    <v>      -0.17241379       0.17241379       0.17241379 </v>
    <v>       0.17241379      -0.17241379       0.17241379 </v>
    <v>       0.17241379       0.17241379      -0.17241379 </v>
   </varray>
  </crystal>
  <varray name="positions" >
   <v>       0.87500000       0.87500000       0.87500000 </v>
   <v>       0.12500000       0.12500000       0.12500000 </v>
  </varray>
 </structure>
 <calculation>
  <scstep>
   <time name="dav">    0.48    0.48</time>
   <time name="total">    0.49    0.50</time>
   <energy>
    <i name="alphaZ">      2.76051321 </i>
    <i name="ewald">   -213.98274834 </i>
    <i name="hartreedc">    -14.16697611 </i>
    <i name="XCdc">    -19.33179483 </i>
    <i name="pawpsdc">     65.95520812 </i>
    <i name="pawaedc">    -30.76852678 </i>
    <i name="eentropy">     -0.00168547 </i>
    <i name="bandstr">      1.86928494 </i>
    <i name="atom">    206.13251344 </i>
    <i name="e_fr_energy">     -1.53421181 </i>
    <i name="e_wo_entrp">     -1.53252634 </i>
    <i name="e_0_energy">     -1.53336908 </i>
   </energy>
  </scstep>
  <scstep>
   <time name="dav">    0.74    0.74</time>
   <time name="total">    0.74    0.74</time>
   <energy>
    <i name="e_fr_energy">    -10.56485613 </i>
    <i name="e_wo_entrp">    -10.56485613 </i>
    <i name="e_0_energy">    -10.56485613 </i>
   </energy>
  </scstep>
  <scstep>
   <time name="dav">    0.59    0.59</time>
   <time name="total">    0.59    0.60</time>
   <energy>
    <i name="e_fr_energy">    -10.63137171 </i>
    <i name="e_wo_entrp">    -10.63137171 </i>
    <i name="e_0_energy">    -10.63137171 </i>
   </energy>
  </scstep>
  <scstep>
   <time name="dav">    1.03    1.03</time>
   <time name="total">    1.03    1.03</time>
   <energy>
    <i name="e_fr_energy">    -10.63158413 </i>
    <i name="e_wo_entrp">    -10.63158413 </i>
    <i name="e_0_energy">    -10.63158413 </i>
   </energy>
  </scstep>
  <scstep>
   <time name="dav">    0.59    0.59</time>
   <time name="total">    0.62    0.63</time>
   <energy>
    <i name="e_fr_energy">    -10.63158415 </i>
    <i name="e_wo_entrp">    -10.63158415 </i>
    <i name="e_0_energy">    -10.63158415 </i>
   </energy>
  </scstep>
  <scstep>
   <time name="dav">    0.74    0.75</time>
   <time name="total">    0.78    0.78</time>
   <energy>
    <i name="e_fr_energy">    -10.57381258 </i>
    <i name="e_wo_entrp">    -10.57381258 </i>
    <i name="e_0_energy">    -10.57381258 </i>
   </energy>
  </scstep>
  <scstep>
   <time name="dav">    0.81    0.81</time>
   <time name="total">    0.84    0.85</time>
   <energy>
    <i name="e_fr_energy">    -10.54211522 </i>
    <i name="e_wo_entrp">    -10.54211522 </i>
    <i name="e_0_energy">    -10.54211522 </i>
   </energy>
  </scstep>
  <scstep>
   <time name="dav">    0.62    0.62</time>
   <time name="total">    0.65    0.66</time>
   <energy>
    <i name="e_fr_energy">    -10.54346333 </i>
    <i name="e_wo_entrp">    -10.54346333 </i>
    <i name="e_0_energy">    -10.54346333 </i>
   </energy>
  </scstep>
  <scstep>
   <time name="dav">    0.93    0.94</time>
   <time name="total">    0.97    0.98</time>
   <energy>
    <i name="e_fr_energy">    -10.54362469 </i>
    <i name="e_wo_entrp">    -10.54362469 </i>
    <i name="e_0_energy">    -10.54362469 </i>
   </energy>
  </scstep>
  <scstep>
   <time name="dav">    0.67    0.67</time>
   <time name="total">    0.70    0.71</time>
   <energy>
    <i name="e_fr_energy">    -10.54363779 </i>
    <i name="e_wo_entrp">    -10.54363779 </i>
    <i name="e_0_energy">    -10.54363779 </i>
   </energy>
  </scstep>
  <scstep>
   <time name="dav">    0.97    0.97</time>
   <time name="total">    0.98    0.99</time>
   <energy>
    <i name="alphaZ">      2.76051321 </i>
    <i name="ewald">   -213.98274834 </i>
    <i name="hartreedc">    -17.36717087 </i>
    <i name="XCdc">    -18.83199944 </i>
    <i name="pawpsdc">     69.10424590 </i>
    <i name="pawaedc">    -33.99712192 </i>
    <i name="eentropy">     -0.00000000 </i>
    <i name="bandstr">     -4.36186879 </i>
    <i name="atom">    206.13251344 </i>
    <i name="e_fr_energy">    -10.54363681 </i>
    <i name="e_wo_entrp">    -10.54363681 </i>
    <i name="e_0_energy">    -10.54363681 </i>
   </energy>
  </scstep>
  <structure>
   <crystal>
    <varray name="basis" >
     <v>       0.00000000       2.90000000       2.90000000 </v>
     <v>       2.90000000       0.00000000       2.90000000 </v>
     <v>       2.90000000       2.90000000       0.00000000 </v>
    </varray>
    <i name="volume">     48.77800000 </i>
    <varray name="rec_basis" >
     <v>      -0.17241379       0.17241379       0.17241379 </v>
     <v>       0.17241379      -0.17241379       0.17241379 </v>
     <v>       0.17241379       0.17241379      -0.17241379 </v>
    </varray>
   </crystal>
   <varray name="positions" >
    <v>       0.87500000       0.87500000       0.87500000 </v>
    <v>       0.12500000       0.12500000       0.12500000 </v>
   </varray>
  </structure>
  <varray name="forces" >
   <v>       0.00000000       0.00000000       0.00000000 </v>
   <v>      -0.00000000      -0.00000000      -0.00000000 </v>
  </varray>
  <varray name="stress" >
   <v>    -105.71284851       0.00000000       0.00000000 </v>
   <v>      -0.00000000    -105.71284851      -0.00000000 </v>
   <v>       0.00000000       0.00000000    -105.71284851 </v>
  </varray>
  <energy>
   <i name="e_fr_energy">    -10.54363681 </i>
   <i name="e_wo_entrp">    -10.54363681 </i>
   <i name="e_0_energy">     -0.00000000 </i>
  </energy>
  <time name="totalsc">    9.28    9.43</time>
  <eigenvalues>
   <array>
    <dimension dim="1">band</dimension>
    <dimension dim="2">kpoint</dimension>
    <dimension dim="3">spin</dimension>
    <field>eigene</field>
    <field>occ</field>
    <set>
     <set comment="spin 1">
      <set comment="kpoint 1">
       <r>   -6.7137    1.0000 </r>
       <r>    4.0007    1.0000 </r>
       <r>    4.0007    1.0000 </r>
       <r>    4.0007    1.0000 </r>
       <r>    5.2600    0.0000 </r>
       <r>    6.4624    0.0000 </r>
       <r>    6.4624    0.0000 </r>
       <r>    6.4624    0.0000 </r>
       <r>   11.2324    0.0000 </r>
       <r>   11.5951    0.0000 </r>
       <r>   11.5951    0.0000 </r>
       <r>   14.6078    0.0000 </r>
       <r>   14.6078    0.0000 </r>
       <r>   14.6078    0.0000 </r>
       <r>   18.2648    0.0000 </r>
       <r>   24.8642    0.0000 </r>
      </set>
      <set comment="kpoint 2">
       <r>   -6.6647    1.0000 </r>
       <r>    3.3211    1.0000 </r>
       <r>    3.9243    1.0000 </r>
       <r>    3.9243    1.0000 </r>
       <r>    5.6397    0.0000 </r>
       <r>    6.5753    0.0000 </r>
       <r>    6.5753    0.0000 </r>
       <r>    6.6832    0.0000 </r>
       <r>   11.4398    0.0000 </r>
       <r>   11.4398    0.0000 </r>
       <r>   11.4481    0.0000 </r>
       <r>   14.4196    0.0000 </r>
       <r>   14.9291    0.0000 </r>
       <r>   14.9291    0.0000 </r>
       <r>   18.6076    0.0000 </r>
       <r>   23.9777    0.0000 </r>
      </set>
      <set comment="kpoint 3">
       <r>   -6.5191    1.0000 </r>
       <r>    2.2337    1.0000 </r>
       <r>    3.7390    1.0000 </r>
       <r>    3.7390    1.0000 </r>
       <r>    5.6844    0.0000 </r>
       <r>    6.8500    0.0000 </r>
       <r>    6.8500    0.0000 </r>
       <r>    7.5331    0.0000 </r>
       <r>   11.1571    0.0000 </r>
       <r>   11.1571    0.0000 </r>
       <r>   11.9915    0.0000 </r>
       <r>   14.0807    0.0000 </r>
       <r>   15.7217    0.0000 </r>
       <r>   15.7217    0.0000 </r>
       <r>   19.4364    0.0000 </r>
       <r>   22.6999    0.0000 </r>
      </set>
      <set comment="kpoint 4">
       <r>   -6.2809    1.0000 </r>
       <r>    1.1335    1.0000 </r>
       <r>    3.5198    1.0000 </r>
       <r>    3.5198    1.0000 </r>
       <r>    5.4886    0.0000 </r>
       <r>    7.1508    0.0000 </r>
       <r>    7.1508    0.0000 </r>
       <r>    8.6142    0.0000 </r>
       <r>   11.0135    0.0000 </r>
       <r>   11.0135    0.0000 </r>
       <r>   12.4391    0.0000 </r>
       <r>   14.1322    0.0000 </r>
       <r>   16.7372    0.0000 </r>
       <r>   16.7372    0.0000 </r>
       <r>   20.2011    0.0000 </r>
       <r>   21.2130    0.0000 </r>
      </set>
      <set comment="kpoint 5">
       <r>   -5.9594    1.0000 </r>
       <r>    0.0929    1.0000 </r>
       <r>    3.3160    1.0000 </r>
       <r>    3.3160    1.0000 </r>
       <r>    5.2662    0.0000 </r>
       <r>    7.3524    0.0000 </r>
       <r>    7.3524    0.0000 </r>
       <r>    9.7183    0.0000 </r>
       <r>   11.1777    0.0000 </r>
       <r>   11.1777    0.0000 </r>
       <r>   12.3713    0.0000 </r>
       <r>   14.9710    0.0000 </r>
       <r>   17.6328    0.0000 </r>
       <r>   17.6328    0.0000 </r>
       <r>   19.5724    0.0000 </r>
       <r>   19.9866    0.0000 </r>
      </set>
      <set comment="kpoint 6">
       <r>   -5.5750    1.0000 </r>
       <r>   -0.8440    1.0000 </r>
       <r>    3.1521    1.0000 </r>
       <r>    3.1521    1.0000 </r>
       <r>    5.0766    0.0000 </r>
       <r>    7.4156    0.0000 </r>
       <r>    7.4156    0.0000 </r>
       <r>   10.7508    0.0000 </r>
       <r>   11.6992    0.0000 </r>
       <r>   11.6992    0.0000 </r>
       <r>   12.2251    0.0000 </r>
       <r>   15.9345    0.0000 </r>
       <r>   17.2772    0.0000 </r>
       <r>   17.2772    0.0000 </r>
       <r>   18.7315    0.0000 </r>
       <r>   20.2072    0.0000 </r>
      </set>
      <set comment="kpoint 7">
       <r>   -5.1765    1.0000 </r>
       <r>   -1.6163    1.0000 </r>
       <r>    3.0391    1.0000 </r>
       <r>    3.0391    1.0000 </r>
       <r>    4.9425    0.0000 </r>
       <r>    7.3972    0.0000 </r>
       <r>    7.3972    0.0000 </r>
       <r>   11.3443    0.0000 </r>
       <r>   12.5192    0.0000 </r>
       <r>   12.5192    0.0000 </r>
       <r>   12.5837    0.0000 </r>
       <r>   15.8346    0.0000 </r>
       <r>   16.0426    0.0000 </r>
       <r>   16.0426    0.0000 </r>
       <r>   19.1452    0.0000 </r>
       <r>   21.4884    0.0000 </r>
      </set>
      <set comment="kpoint 8">
       <r>   -4.8837    1.0000 </r>
       <r>   -2.0974    1.0000 </r>
       <r>    2.9818    1.0000 </r>
       <r>    2.9818    1.0000 </r>
       <r>    4.8737    0.0000 </r>
       <r>    7.3691    0.0000 </r>
       <r>    7.3691    0.0000 </r>
       <r>   11.4085    0.0000 </r>
       <r>   13.5431    0.0000 </r>
       <r>   13.5521    0.0000 </r>
       <r>   13.5521    0.0000 </r>
       <r>   14.7598    0.0000 </r>
       <r>   14.7598    0.0000 </r>
       <r>   14.8766    0.0000 </r>
       <r>   20.6021    0.0000 </r>
       <r>   22.5538    0.0000 </r>
      </set>
      <set comment="kpoint 9">
       <r>   -6.6483    1.0000 </r>
       <r>    3.3236    1.0000 </r>
       <r>    3.7731    1.0000 </r>
       <r>    3.7731    1.0000 </r>
       <r>    5.9200    0.0000 </r>
       <r>    6.3119    0.0000 </r>
       <r>    6.7712    0.0000 </r>
       <r>    6.7712    0.0000 </r>
       <r>   11.1324    0.0000 </r>
       <r>   11.5195    0.0000 </r>
       <r>   11.6702    0.0000 </r>
       <r>   14.7274    0.0000 </r>
       <r>   14.7274    0.0000 </r>
       <r>   14.9285    0.0000 </r>
       <r>   18.7401    0.0000 </r>
       <r>   23.7729    0.0000 </r>
      </set>
      <set comment="kpoint 10">
       <r>   -6.5347    1.0000 </r>
       <r>    2.4841    1.0000 </r>
       <r>    3.5469    1.0000 </r>
       <r>    3.6401    1.0000 </r>
       <r>    6.1128    0.0000 </r>
       <r>    6.3683    0.0000 </r>
       <r>    7.1029    0.0000 </r>
       <r>    7.3775    0.0000 </r>
       <r>   10.7518    0.0000 </r>
       <r>   11.6164    0.0000 </r>
       <r>   11.9645    0.0000 </r>
       <r>   14.4526    0.0000 </r>
       <r>   15.1494    0.0000 </r>
       <r>   15.6836    0.0000 </r>
       <r>   19.4361    0.0000 </r>
       <r>   22.6129    0.0000 </r>
      </set>
      <set comment="kpoint 11">
       <r>   -6.3268    1.0000 </r>
       <r>    1.4418    1.0000 </r>
       <r>    3.3148    1.0000 </r>
       <r>    3.4433    1.0000 </r>
       <r>    5.9429    0.0000 </r>
       <r>    6.6713    0.0000 </r>
       <r>    7.4455    0.0000 </r>
       <r>    8.2890    0.0000 </r>
       <r>   10.5600    0.0000 </r>
       <r>   11.5104    0.0000 </r>
       <r>   12.5365    0.0000 </r>
       <r>   14.2461    0.0000 </r>
       <r>   15.9928    0.0000 </r>
       <r>   16.7326    0.0000 </r>
       <r>   20.2812    0.0000 </r>
       <r>   21.0866    0.0000 </r>
      </set>
      <set comment="kpoint 12">
       <r>   -6.0318    1.0000 </r>
       <r>    0.4078    1.0000 </r>
       <r>    3.1170    1.0000 </r>
       <r>    3.2031    1.0000 </r>
       <r>    5.7258    0.0000 </r>
       <r>    6.9836    0.0000 </r>
       <r>    7.6771    0.0000 </r>
       <r>    9.1154    0.0000 </r>
       <r>   10.7979    0.0000 </r>
       <r>   11.6232    0.0000 </r>
       <r>   12.6839    0.0000 </r>
       <r>   14.7467    0.0000 </r>
       <r>   16.9282    0.0000 </r>
       <r>   17.7858    0.0000 </r>
       <r>   19.7030    0.0000 </r>
       <r>   19.7379    0.0000 </r>
      </set>
      <set comment="kpoint 13">
       <r>   -5.6650    1.0000 </r>
       <r>   -0.5518    1.0000 </r>
       <r>    2.9726    1.0000 </r>
       <r>    2.9737    1.0000 </r>
       <r>    5.5272    0.0000 </r>
       <r>    7.1740    0.0000 </r>
       <r>    7.7412    0.0000 </r>
       <r>    9.8325    0.0000 </r>
       <r>   11.5223    0.0000 </r>
       <r>   12.0745    0.0000 </r>
       <r>   12.4992    0.0000 </r>
       <r>   15.6839    0.0000 </r>
       <r>   17.0040    0.0000 </r>
       <r>   17.9033    0.0000 </r>
       <r>   19.1977    0.0000 </r>
       <r>   19.4035    0.0000 </r>
      </set>
      <set comment="kpoint 14">
       <r>   -5.2624    1.0000 </r>
       <r>   -1.3792    1.0000 </r>
       <r>    2.7829    1.0000 </r>
       <r>    2.8900    1.0000 </r>
       <r>    5.3747    0.0000 </r>
       <r>    7.2438    0.0000 </r>
       <r>    7.6857    0.0000 </r>
       <r>   10.5911    0.0000 </r>
       <r>   12.2091    0.0000 </r>
       <r>   12.6713    0.0000 </r>
       <r>   12.8369    0.0000 </r>
       <r>   15.7427    0.0000 </r>
       <r>   15.8713    0.0000 </r>
       <r>   17.4014    0.0000 </r>
       <r>   18.9053    0.0000 </r>
       <r>   20.5236    0.0000 </r>
      </set>
      <set comment="kpoint 15">
       <r>   -4.9138    1.0000 </r>
       <r>   -1.9735    1.0000 </r>
       <r>    2.6445    1.0000 </r>
       <r>    2.8713    1.0000 </r>
       <r>    5.2813    0.0000 </r>
       <r>    7.2759    0.0000 </r>
       <r>    7.5923    0.0000 </r>
       <r>   11.2563    0.0000 </r>
       <r>   12.4112    0.0000 </r>
       <r>   13.7342    0.0000 </r>
       <r>   13.8244    0.0000 </r>
       <r>   14.5819    0.0000 </r>
       <r>   14.7785    0.0000 </r>
       <r>   16.3847    0.0000 </r>
       <r>   20.0600    0.0000 </r>
       <r>   21.9864    0.0000 </r>
      </set>
      <set comment="kpoint 16">
       <r>   -4.8000    1.0000 </r>
       <r>   -2.1489    1.0000 </r>
       <r>    2.5661    1.0000 </r>
       <r>    2.9152    1.0000 </r>
       <r>    5.2529    0.0000 </r>
       <r>    7.3290    0.0000 </r>
       <r>    7.5133    0.0000 </r>
       <r>   11.4744    0.0000 </r>
       <r>   12.9587    0.0000 </r>
       <r>   13.3449    0.0000 </r>
       <r>   13.8749    0.0000 </r>
       <r>   14.9805    0.0000 </r>
       <r>   15.0000    0.0000 </r>
       <r>   15.1750    0.0000 </r>
       <r>   21.0270    0.0000 </r>
       <r>   21.9480    0.0000 </r>
      </set>
      <set comment="kpoint 17">
       <r>   -5.0151    1.0000 </r>
       <r>   -1.8100    1.0000 </r>
       <r>    2.5526    1.0000 </r>
       <r>    3.0177    1.0000 </r>
       <r>    5.2912    0.0000 </r>
       <r>    7.4165    0.0000 </r>
       <r>    7.4626    0.0000 </r>
       <r>   11.3103    0.0000 </r>
       <r>   12.2692    0.0000 </r>
       <r>   12.6022    0.0000 </r>
       <r>   14.0047    0.0000 </r>
       <r>   14.5619    0.0000 </r>
       <r>   16.1106    0.0000 </r>
       <r>   16.2683    0.0000 </r>
       <r>   19.5232    0.0000 </r>
       <r>   21.4305    0.0000 </r>
      </set>
      <set comment="kpoint 18">
       <r>   -5.3975    1.0000 </r>
       <r>   -1.1212    1.0000 </r>
       <r>    2.6071    1.0000 </r>
       <r>    3.1724    1.0000 </r>
       <r>    5.3939    0.0000 </r>
       <r>    7.4160    0.0000 </r>
       <r>    7.5101    0.0000 </r>
       <r>   10.6584    0.0000 </r>
       <r>   11.3966    0.0000 </r>
       <r>   12.4355    0.0000 </r>
       <r>   12.9542    0.0000 </r>
       <r>   15.5852    0.0000 </r>
       <r>   16.7645    0.0000 </r>
       <r>   17.5505    0.0000 </r>
       <r>   18.7011    0.0000 </r>
       <r>   20.0110    0.0000 </r>
      </set>
      <set comment="kpoint 19">
       <r>   -5.7943    1.0000 </r>
       <r>   -0.2427    1.0000 </r>
       <r>    2.7315    1.0000 </r>
       <r>    3.3688    1.0000 </r>
       <r>    5.5535    0.0000 </r>
       <r>    7.3136    0.0000 </r>
       <r>    7.5317    0.0000 </r>
       <r>    9.8004    0.0000 </r>
       <r>   10.8110    0.0000 </r>
       <r>   12.0671    0.0000 </r>
       <r>   12.6137    0.0000 </r>
       <r>   15.3409    0.0000 </r>
       <r>   17.0958    0.0000 </r>
       <r>   18.3244    0.0000 </r>
       <r>   18.7845    0.0000 </r>
       <r>   19.6931    0.0000 </r>
      </set>
      <set comment="kpoint 20">
       <r>   -6.1396    1.0000 </r>
       <r>    0.7435    1.0000 </r>
       <r>    2.9257    1.0000 </r>
       <r>    3.5885    1.0000 </r>
       <r>    5.7512    0.0000 </r>
       <r>    7.1017    0.0000 </r>
       <r>    7.3695    0.0000 </r>
       <r>    8.9386    0.0000 </r>
       <r>   10.5845    0.0000 </r>
       <r>   11.5327    0.0000 </r>
       <r>   12.7222    0.0000 </r>
       <r>   14.4800    0.0000 </r>
       <r>   16.5184    0.0000 </r>
       <r>   17.6655    0.0000 </r>
       <r>   19.5910    0.0000 </r>
       <r>   20.4807    0.0000 </r>
      </set>
      <set comment="kpoint 21">
       <r>   -6.4066    1.0000 </r>
       <r>    1.7740    1.0000 </r>
       <r>    3.1905    1.0000 </r>
       <r>    3.7963    1.0000 </r>
       <r>    5.9354    0.0000 </r>
       <r>    6.8194    0.0000 </r>
       <r>    7.0024    0.0000 </r>
       <r>    8.0747    0.0000 </r>
       <r>   10.6982    0.0000 </r>
       <r>   11.3854    0.0000 </r>
       <r>   12.3607    0.0000 </r>
       <r>   14.2717    0.0000 </r>
       <r>   15.5304    0.0000 </r>
       <r>   16.5991    0.0000 </r>
       <r>   19.9802    0.0000 </r>
       <r>   21.1110    0.0000 </r>
      </set>
      <set comment="kpoint 22">
       <r>   -6.5834    1.0000 </r>
       <r>    2.7279    1.0000 </r>
       <r>    3.5422    1.0000 </r>
       <r>    3.9309    1.0000 </r>
       <r>    5.9212    0.0000 </r>
       <r>    6.6004    0.0000 </r>
       <r>    6.6607    0.0000 </r>
       <r>    7.2522    0.0000 </r>
       <r>   11.0386    0.0000 </r>
       <r>   11.4673    0.0000 </r>
       <r>   11.7787    0.0000 </r>
       <r>   14.4804    0.0000 </r>
       <r>   14.8561    0.0000 </r>
       <r>   15.6280    0.0000 </r>
       <r>   19.1191    0.0000 </r>
       <r>   22.6664    0.0000 </r>
      </set>
      <set comment="kpoint 23">
       <r>   -6.4531    1.0000 </r>
       <r>    2.2724    1.0000 </r>
       <r>    3.2963    1.0000 </r>
       <r>    3.2963    1.0000 </r>
       <r>    5.9558    0.0000 </r>
       <r>    6.8243    0.0000 </r>
       <r>    7.4890    0.0000 </r>
       <r>    7.4890    0.0000 </r>
       <r>   10.3361    0.0000 </r>
       <r>   11.8955    0.0000 </r>
       <r>   12.2792    0.0000 </r>
       <r>   15.0808    0.0000 </r>
       <r>   15.0808    0.0000 </r>
       <r>   15.5292    0.0000 </r>
       <r>   20.0065    0.0000 </r>
       <r>   22.1855    0.0000 </r>
      </set>
      <set comment="kpoint 24">
       <r>   -6.2762    1.0000 </r>
       <r>    1.5303    1.0000 </r>
       <r>    3.0516    1.0000 </r>
       <r>    3.0671    1.0000 </r>
       <r>    5.9195    0.0000 </r>
       <r>    6.9073    0.0000 </r>
       <r>    7.8939    0.0000 </r>
       <r>    8.1035    0.0000 </r>
       <r>   10.2011    0.0000 </r>
       <r>   11.9674    0.0000 </r>
       <r>   12.8373    0.0000 </r>
       <r>   14.8795    0.0000 </r>
       <r>   15.5763    0.0000 </r>
       <r>   16.4239    0.0000 </r>
       <r>   20.7658    0.0000 </r>
       <r>   20.9858    0.0000 </r>
      </set>
      <set comment="kpoint 25">
       <r>   -6.0094    1.0000 </r>
       <r>    0.6157    1.0000 </r>
       <r>    2.7925    1.0000 </r>
       <r>    2.8494    1.0000 </r>
       <r>    6.0290    0.0000 </r>
       <r>    6.9349    0.0000 </r>
       <r>    8.1949    0.0000 </r>
       <r>    8.4928    0.0000 </r>
       <r>   10.6759    0.0000 </r>
       <r>   12.0879    0.0000 </r>
       <r>   13.2673    0.0000 </r>
       <r>   14.9255    0.0000 </r>
       <r>   16.3772    0.0000 </r>
       <r>   17.5459    0.0000 </r>
       <r>   19.5763    0.0000 </r>
       <r>   19.7786    0.0000 </r>
      </set>
      <set comment="kpoint 26">
       <r>   -5.6642    1.0000 </r>
       <r>   -0.3020    1.0000 </r>
       <r>    2.4964    1.0000 </r>
       <r>    2.7081    1.0000 </r>
       <r>    6.0083    0.0000 </r>
       <r>    7.1374    0.0000 </r>
       <r>    8.3075    0.0000 </r>
       <r>    8.7437    0.0000 </r>
       <r>   11.6195    0.0000 </r>
       <r>   12.4835    0.0000 </r>
       <r>   13.1987    0.0000 </r>
       <r>   15.6094    0.0000 </r>
       <r>   16.7263    0.0000 </r>
       <r>   17.9029    0.0000 </r>
       <r>   18.8693    0.0000 </r>
       <r>   19.5040    0.0000 </r>
      </set>
      <set comment="kpoint 27">
       <r>   -5.2670    1.0000 </r>
       <r>   -1.1399    1.0000 </r>
       <r>    2.2283    1.0000 </r>
       <r>    2.6360    1.0000 </r>
       <r>    5.9085    0.0000 </r>
       <r>    7.2894    0.0000 </r>
       <r>    8.2563    0.0000 </r>
       <r>    9.2765    0.0000 </r>
       <r>   12.6779    0.0000 </r>
       <r>   13.0034    0.0000 </r>
       <r>   13.1926    0.0000 </r>
       <r>   15.7578    0.0000 </r>
       <r>   15.7582    0.0000 </r>
       <r>   17.8813    0.0000 </r>
       <r>   19.6195    0.0000 </r>
       <r>   19.7154    0.0000 </r>
      </set>
      <set comment="kpoint 28">
       <r>   -4.8832    1.0000 </r>
       <r>   -1.8068    1.0000 </r>
       <r>    2.0138    1.0000 </r>
       <r>    2.6352    1.0000 </r>
       <r>    5.8281    0.0000 </r>
       <r>    7.3432    0.0000 </r>
       <r>    8.1286    0.0000 </r>
       <r>   10.1039    0.0000 </r>
       <r>   12.6418    0.0000 </r>
       <r>   13.9393    0.0000 </r>
       <r>   14.1393    0.0000 </r>
       <r>   14.4737    0.0000 </r>
       <r>   14.8957    0.0000 </r>
       <r>   17.9840    0.0000 </r>
       <r>   19.6164    0.0000 </r>
       <r>   21.0795    0.0000 </r>
      </set>
      <set comment="kpoint 29">
       <r>   -4.6678    1.0000 </r>
       <r>   -2.1356    1.0000 </r>
       <r>    1.8667    1.0000 </r>
       <r>    2.7040    1.0000 </r>
       <r>    5.8009    0.0000 </r>
       <r>    7.3930    0.0000 </r>
       <r>    7.9917    0.0000 </r>
       <r>   11.0356    0.0000 </r>
       <r>   12.2684    0.0000 </r>
       <r>   13.2152    0.0000 </r>
       <r>   14.1179    0.0000 </r>
       <r>   15.1625    0.0000 </r>
       <r>   15.2844    0.0000 </r>
       <r>   16.8715    0.0000 </r>
       <r>   20.9839    0.0000 </r>
       <r>   21.4995    0.0000 </r>
      </set>
      <set comment="kpoint 30">
       <r>   -4.7863    1.0000 </r>
       <r>   -1.9571    1.0000 </r>
       <r>    1.7965    1.0000 </r>
       <r>    2.8372    1.0000 </r>
       <r>    5.8349    0.0000 </r>
       <r>    7.4823    0.0000 </r>
       <r>    7.8712    0.0000 </r>
       <r>   11.2759    0.0000 </r>
       <r>   12.1039    0.0000 </r>
       <r>   12.2021    0.0000 </r>
       <r>   14.0183    0.0000 </r>
       <r>   15.5917    0.0000 </r>
       <r>   16.4061    0.0000 </r>
       <r>   16.5367    0.0000 </r>
       <r>   19.6893    0.0000 </r>
       <r>   21.5865    0.0000 </r>
      </set>
      <set comment="kpoint 31">
       <r>   -5.1385    1.0000 </r>
       <r>   -1.3752    1.0000 </r>
       <r>    1.8118    1.0000 </r>
       <r>    3.0251    1.0000 </r>
       <r>    5.9263    0.0000 </r>
       <r>    7.6012    0.0000 </r>
       <r>    7.7521    0.0000 </r>
       <r>   10.4372    0.0000 </r>
       <r>   11.1911    0.0000 </r>
       <r>   12.7460    0.0000 </r>
       <r>   14.3705    0.0000 </r>
       <r>   14.7090    0.0000 </r>
       <r>   17.1191    0.0000 </r>
       <r>   17.8362    0.0000 </r>
       <r>   18.6011    0.0000 </r>
       <r>   20.0915    0.0000 </r>
      </set>
      <set comment="kpoint 32">
       <r>   -5.5414    1.0000 </r>
       <r>   -0.5874    1.0000 </r>
       <r>    1.9250    1.0000 </r>
       <r>    3.2520    1.0000 </r>
       <r>    6.0615    0.0000 </r>
       <r>    7.5817    0.0000 </r>
       <r>    7.6726    0.0000 </r>
       <r>    9.5964    0.0000 </r>
       <r>   10.5635    0.0000 </r>
       <r>   13.0089    0.0000 </r>
       <r>   13.4435    0.0000 </r>
       <r>   15.3070    0.0000 </r>
       <r>   16.7367    0.0000 </r>
       <r>   18.2592    0.0000 </r>
       <r>   18.8812    0.0000 </r>
       <r>   19.6626    0.0000 </r>
      </set>
      <set comment="kpoint 33">
       <r>   -5.9068    1.0000 </r>
       <r>    0.2821    1.0000 </r>
       <r>    2.1602    1.0000 </r>
       <r>    3.4910    1.0000 </r>
       <r>    6.2050    0.0000 </r>
       <r>    7.3157    0.0000 </r>
       <r>    7.5194    0.0000 </r>
       <r>    9.0058    0.0000 </r>
       <r>   10.2974    0.0000 </r>
       <r>   12.3334    0.0000 </r>
       <r>   13.3140    0.0000 </r>
       <r>   14.9027    0.0000 </r>
       <r>   16.5116    0.0000 </r>
       <r>   18.1797    0.0000 </r>
       <r>   18.6469    0.0000 </r>
       <r>   20.4522    0.0000 </r>
      </set>
      <set comment="kpoint 34">
       <r>   -6.2002    1.0000 </r>
       <r>    1.1144    1.0000 </r>
       <r>    2.5704    1.0000 </r>
       <r>    3.6955    1.0000 </r>
       <r>    6.2345    0.0000 </r>
       <r>    7.0127    0.0000 </r>
       <r>    7.1572    0.0000 </r>
       <r>    8.6125    0.0000 </r>
       <r>   10.3750    0.0000 </r>
       <r>   11.6837    0.0000 </r>
       <r>   12.9415    0.0000 </r>
       <r>   14.6057    0.0000 </r>
       <r>   15.7002    0.0000 </r>
       <r>   17.6357    0.0000 </r>
       <r>   19.5107    0.0000 </r>
       <r>   20.6260    0.0000 </r>
      </set>
      <set comment="kpoint 35">
       <r>   -6.1300    1.0000 </r>
       <r>    1.1992    1.0000 </r>
       <r>    2.7947    1.0000 </r>
       <r>    2.7947    1.0000 </r>
       <r>    5.5521    0.0000 </r>
       <r>    7.2043    0.0000 </r>
       <r>    8.3865    0.0000 </r>
       <r>    8.3865    0.0000 </r>
       <r>   10.0958    0.0000 </r>
       <r>   12.2704    0.0000 </r>
       <r>   13.3306    0.0000 </r>
       <r>   15.6403    0.0000 </r>
       <r>   15.6403    0.0000 </r>
       <r>   16.2243    0.0000 </r>
       <r>   20.6317    0.0000 </r>
       <r>   20.6317    0.0000 </r>
      </set>
      <set comment="kpoint 36">
       <r>   -5.8923    1.0000 </r>
       <r>    0.5455    1.0000 </r>
       <r>    2.5151    1.0000 </r>
       <r>    2.5816    1.0000 </r>
       <r>    5.5426    0.0000 </r>
       <r>    7.1002    0.0000 </r>
       <r>    8.6649    0.0000 </r>
       <r>    8.7993    0.0000 </r>
       <r>   10.6144    0.0000 </r>
       <r>   12.4874    0.0000 </r>
       <r>   13.8857    0.0000 </r>
       <r>   15.5858    0.0000 </r>
       <r>   16.1373    0.0000 </r>
       <r>   17.1465    0.0000 </r>
       <r>   19.5298    0.0000 </r>
       <r>   19.6807    0.0000 </r>
      </set>
      <set comment="kpoint 37">
       <r>   -5.5715    1.0000 </r>
       <r>   -0.2254    1.0000 </r>
       <r>    2.1532    1.0000 </r>
       <r>    2.4320    1.0000 </r>
       <r>    5.7193    0.0000 </r>
       <r>    7.1720    0.0000 </r>
       <r>    8.5962    0.0000 </r>
       <r>    9.0153    0.0000 </r>
       <r>   11.6520    0.0000 </r>
       <r>   12.8646    0.0000 </r>
       <r>   14.0535    0.0000 </r>
       <r>   15.8898    0.0000 </r>
       <r>   16.5035    0.0000 </r>
       <r>   17.7272    0.0000 </r>
       <r>   18.6313    0.0000 </r>
       <r>   19.2732    0.0000 </r>
      </set>
      <set comment="kpoint 38">
       <r>   -5.1868    1.0000 </r>
       <r>   -0.9967    1.0000 </r>
       <r>    1.7882    1.0000 </r>
       <r>    2.3551    1.0000 </r>
       <r>    5.8031    0.0000 </r>
       <r>    7.6106    0.0000 </r>
       <r>    8.5090    0.0000 </r>
       <r>    9.0166    0.0000 </r>
       <r>   12.8290    0.0000 </r>
       <r>   13.5353    0.0000 </r>
       <r>   13.7787    0.0000 </r>
       <r>   15.7033    0.0000 </r>
       <r>   16.0741    0.0000 </r>
       <r>   17.7007    0.0000 </r>
       <r>   19.1443    0.0000 </r>
       <r>   20.3144    0.0000 </r>
      </set>
      <set comment="kpoint 39">
       <r>   -4.7849    1.0000 </r>
       <r>   -1.6734    1.0000 </r>
       <r>    1.4781    1.0000 </r>
       <r>    2.3542    1.0000 </r>
       <r>    5.8136    0.0000 </r>
       <r>    8.0105    0.0000 </r>
       <r>    8.8231    0.0000 </r>
       <r>    8.8893    0.0000 </r>
       <r>   13.1824    0.0000 </r>
       <r>   14.1119    0.0000 </r>
       <r>   14.4268    0.0000 </r>
       <r>   14.4670    0.0000 </r>
       <r>   15.3929    0.0000 </r>
       <r>   18.7652    0.0000 </r>
       <r>   19.9811    0.0000 </r>
       <r>   20.3119    0.0000 </r>
      </set>
      <set comment="kpoint 40">
       <r>   -4.4884    1.0000 </r>
       <r>   -2.1084    1.0000 </r>
       <r>    1.2496    1.0000 </r>
       <r>    2.4283    1.0000 </r>
       <r>    5.8483    0.0000 </r>
       <r>    8.0495    0.0000 </r>
       <r>    8.7188    0.0000 </r>
       <r>    9.7437    0.0000 </r>
       <r>   12.3714    0.0000 </r>
       <r>   13.1686    0.0000 </r>
       <r>   14.9014    0.0000 </r>
       <r>   15.3201    0.0000 </r>
       <r>   15.5805    0.0000 </r>
       <r>   18.5854    0.0000 </r>
       <r>   20.4515    0.0000 </r>
       <r>   21.2475    0.0000 </r>
      </set>
      <set comment="kpoint 41">
       <r>   -4.5002    1.0000 </r>
       <r>   -2.0894    1.0000 </r>
       <r>    1.1187    1.0000 </r>
       <r>    2.5722    1.0000 </r>
       <r>    5.9404    0.0000 </r>
       <r>    8.0644    0.0000 </r>
       <r>    8.5424    0.0000 </r>
       <r>   10.8340    0.0000 </r>
       <r>   11.3769    0.0000 </r>
       <r>   12.0349    0.0000 </r>
       <r>   14.7687    0.0000 </r>
       <r>   16.3825    0.0000 </r>
       <r>   16.8229    0.0000 </r>
       <r>   17.5156    0.0000 </r>
       <r>   19.5811    0.0000 </r>
       <r>   21.5542    0.0000 </r>
      </set>
      <set comment="kpoint 42">
       <r>   -4.8086    1.0000 </r>
       <r>   -1.6348    1.0000 </r>
       <r>    1.1032    1.0000 </r>
       <r>    2.7759    1.0000 </r>
       <r>    6.0855    0.0000 </r>
       <r>    8.1202    0.0000 </r>
       <r>    8.3463    0.0000 </r>
       <r>   10.2821    0.0000 </r>
       <r>   11.1056    0.0000 </r>
       <r>   12.0421    0.0000 </r>
       <r>   14.8702    0.0000 </r>
       <r>   15.9744    0.0000 </r>
       <r>   17.5160    0.0000 </r>
       <r>   18.1275    0.0000 </r>
       <r>   18.4141    0.0000 </r>
       <r>   20.4733    0.0000 </r>
      </set>
      <set comment="kpoint 43">
       <r>   -5.2103    1.0000 </r>
       <r>   -0.9773    1.0000 </r>
       <r>    1.2343    1.0000 </r>
       <r>    3.0215    1.0000 </r>
       <r>    6.2519    0.0000 </r>
       <r>    8.0724    0.0000 </r>
       <r>    8.1594    0.0000 </r>
       <r>    9.3854    0.0000 </r>
       <r>   10.4810    0.0000 </r>
       <r>   13.0648    0.0000 </r>
       <r>   14.5534    0.0000 </r>
       <r>   15.4254    0.0000 </r>
       <r>   16.6470    0.0000 </r>
       <r>   18.5858    0.0000 </r>
       <r>   19.2856    0.0000 </r>
       <r>   19.5159    0.0000 </r>
      </set>
      <set comment="kpoint 44">
       <r>   -5.5910    1.0000 </r>
       <r>   -0.2973    1.0000 </r>
       <r>    1.5693    1.0000 </r>
       <r>    3.2775    1.0000 </r>
       <r>    6.3576    0.0000 </r>
       <r>    7.6936    0.0000 </r>
       <r>    7.9082    0.0000 </r>
       <r>    8.9760    0.0000 </r>
       <r>   10.2293    0.0000 </r>
       <r>   13.4148    0.0000 </r>
       <r>   13.6124    0.0000 </r>
       <r>   15.2266    0.0000 </r>
       <r>   16.5805    0.0000 </r>
       <r>   17.6869    0.0000 </r>
       <r>   19.4367    0.0000 </r>
       <r>   20.0804    0.0000 </r>
      </set>
      <set comment="kpoint 45">
       <r>   -5.6831    1.0000 </r>
       <r>    0.1421    1.0000 </r>
       <r>    2.3546    1.0000 </r>
       <r>    2.3546    1.0000 </r>
       <r>    5.2037    0.0000 </r>
       <r>    6.7891    0.0000 </r>
       <r>    9.3703    0.0000 </r>
       <r>    9.3703    0.0000 </r>
       <r>   10.7991    0.0000 </r>
       <r>   12.7943    0.0000 </r>
       <r>   14.5026    0.0000 </r>
       <r>   16.2712    0.0000 </r>
       <r>   16.2712    0.0000 </r>
       <r>   17.0667    0.0000 </r>
       <r>   19.3268    0.0000 </r>
       <r>   19.3268    0.0000 </r>
      </set>
      <set comment="kpoint 46">
       <r>   -5.3881    1.0000 </r>
       <r>   -0.4433    1.0000 </r>
       <r>    2.0626    1.0000 </r>
       <r>    2.1905    1.0000 </r>
       <r>    5.2426    0.0000 </r>
       <r>    6.5824    0.0000 </r>
       <r>    9.5583    0.0000 </r>
       <r>    9.7610    0.0000 </r>
       <r>   11.6519    0.0000 </r>
       <r>   13.1668    0.0000 </r>
       <r>   14.8688    0.0000 </r>
       <r>   16.4245    0.0000 </r>
       <r>   16.4247    0.0000 </r>
       <r>   17.5740    0.0000 </r>
       <r>   18.6564    0.0000 </r>
       <r>   19.0387    0.0000 </r>
      </set>
      <set comment="kpoint 47">
       <r>   -5.0209    1.0000 </r>
       <r>   -1.0841    1.0000 </r>
       <r>    1.6396    1.0000 </r>
       <r>    2.1002    1.0000 </r>
       <r>    5.4379    0.0000 </r>
       <r>    6.7472    0.0000 </r>
       <r>    9.4447    0.0000 </r>
       <r>    9.8824    0.0000 </r>
       <r>   12.8371    0.0000 </r>
       <r>   13.8017    0.0000 </r>
       <r>   14.5309    0.0000 </r>
       <r>   15.7077    0.0000 </r>
       <r>   16.8451    0.0000 </r>
       <r>   17.3619    0.0000 </r>
       <r>   18.8459    0.0000 </r>
       <r>   19.9262    0.0000 </r>
      </set>
      <set comment="kpoint 48">
       <r>   -4.6142    1.0000 </r>
       <r>   -1.6974    1.0000 </r>
       <r>    1.2189    1.0000 </r>
       <r>    2.0883    1.0000 </r>
       <r>    5.5315    0.0000 </r>
       <r>    7.3973    0.0000 </r>
       <r>    9.2938    0.0000 </r>
       <r>    9.7976    0.0000 </r>
       <r>   13.5334    0.0000 </r>
       <r>   14.2494    0.0000 </r>
       <r>   14.4524    0.0000 </r>
       <r>   14.7347    0.0000 </r>
       <r>   16.3816    0.0000 </r>
       <r>   18.3632    0.0000 </r>
       <r>   19.5910    0.0000 </r>
       <r>   20.6407    0.0000 </r>
      </set>
      <set comment="kpoint 49">
       <r>   -4.2593    1.0000 </r>
       <r>   -2.1683    1.0000 </r>
       <r>    0.8828    1.0000 </r>
       <r>    2.1546    1.0000 </r>
       <r>    5.6019    0.0000 </r>
       <r>    8.3492    0.0000 </r>
       <r>    9.1807    0.0000 </r>
       <r>    9.6151    0.0000 </r>
       <r>   12.5160    0.0000 </r>
       <r>   13.2076    0.0000 </r>
       <r>   15.4099    0.0000 </r>
       <r>   15.8378    0.0000 </r>
       <r>   16.0793    0.0000 </r>
       <r>   19.5787    0.0000 </r>
       <r>   20.0487    0.0000 </r>
       <r>   20.1646    0.0000 </r>
      </set>
      <set comment="kpoint 50">
       <r>   -4.1685    1.0000 </r>
       <r>   -2.2768    1.0000 </r>
       <r>    0.6732    1.0000 </r>
       <r>    2.2951    1.0000 </r>
       <r>    5.7256    0.0000 </r>
       <r>    9.0540    0.0000 </r>
       <r>    9.3854    0.0000 </r>
       <r>    9.5383    0.0000 </r>
       <r>   11.3504    0.0000 </r>
       <r>   12.0769    0.0000 </r>
       <r>   15.9746    0.0000 </r>
       <r>   16.5284    0.0000 </r>
       <r>   17.0849    0.0000 </r>
       <r>   19.1382    0.0000 </r>
       <r>   19.4029    0.0000 </r>
       <r>   20.1587    0.0000 </r>
      </set>
      <set comment="kpoint 51">
       <r>   -4.4272    1.0000 </r>
       <r>   -1.9515    1.0000 </r>
       <r>    0.6267    1.0000 </r>
       <r>    2.5003    1.0000 </r>
       <r>    5.9104    0.0000 </r>
       <r>    9.0633    0.0000 </r>
       <r>    9.0815    0.0000 </r>
       <r>   10.1977    0.0000 </r>
       <r>   10.7627    0.0000 </r>
       <r>   11.1825    0.0000 </r>
       <r>   16.0001    0.0000 </r>
       <r>   16.9911    0.0000 </r>
       <r>   17.8210    0.0000 </r>
       <r>   18.3925    0.0000 </r>
       <r>   18.5767    0.0000 </r>
       <r>   20.0894    0.0000 </r>
      </set>
      <set comment="kpoint 52">
       <r>   -4.8218    1.0000 </r>
       <r>   -1.4509    1.0000 </r>
       <r>    0.7953    1.0000 </r>
       <r>    2.7529    1.0000 </r>
       <r>    6.1216    0.0000 </r>
       <r>    8.6301    0.0000 </r>
       <r>    8.9237    0.0000 </r>
       <r>    9.3514    0.0000 </r>
       <r>   10.6489    0.0000 </r>
       <r>   12.0175    0.0000 </r>
       <r>   15.6627    0.0000 </r>
       <r>   16.4871    0.0000 </r>
       <r>   16.5486    0.0000 </r>
       <r>   18.9947    0.0000 </r>
       <r>   19.3906    0.0000 </r>
       <r>   19.6633    0.0000 </r>
      </set>
      <set comment="kpoint 53">
       <r>   -5.1181    1.0000 </r>
       <r>   -0.8865    1.0000 </r>
       <r>    2.0092    1.0000 </r>
       <r>    2.0092    1.0000 </r>
       <r>    4.9655    0.0000 </r>
       <r>    6.1418    0.0000 </r>
       <r>   10.3993    0.0000 </r>
       <r>   10.3993    0.0000 </r>
       <r>   11.9131    0.0000 </r>
       <r>   13.4662    0.0000 </r>
       <r>   15.5303    0.0000 </r>
       <r>   16.3449    0.0000 </r>
       <r>   16.3449    0.0000 </r>
       <r>   18.1024    0.0000 </r>
       <r>   18.9276    0.0000 </r>
       <r>   18.9283    0.0000 </r>
      </set>
      <set comment="kpoint 54">
       <r>   -4.7710    1.0000 </r>
       <r>   -1.4169    1.0000 </r>
       <r>    1.7321    1.0000 </r>
       <r>    1.9011    1.0000 </r>
       <r>    5.0612    0.0000 </r>
       <r>    5.9887    0.0000 </r>
       <r>   10.5923    0.0000 </r>
       <r>   10.7504    0.0000 </r>
       <r>   12.8277    0.0000 </r>
       <r>   13.9909    0.0000 </r>
       <r>   15.1449    0.0000 </r>
       <r>   15.7188    0.0000 </r>
       <r>   16.6771    0.0000 </r>
       <r>   18.0820    0.0000 </r>
       <r>   18.4477    0.0000 </r>
       <r>   19.5135    0.0000 </r>
      </set>
      <set comment="kpoint 55">
       <r>   -4.3689    1.0000 </r>
       <r>   -1.9500    1.0000 </r>
       <r>    1.2899    1.0000 </r>
       <r>    1.8721    1.0000 </r>
       <r>    5.2444    0.0000 </r>
       <r>    6.3267    0.0000 </r>
       <r>   10.4932    0.0000 </r>
       <r>   10.7794    0.0000 </r>
       <r>   13.6863    0.0000 </r>
       <r>   14.4060    0.0000 </r>
       <r>   14.5152    0.0000 </r>
       <r>   14.9165    0.0000 </r>
       <r>   17.3777    0.0000 </r>
       <r>   17.8702    0.0000 </r>
       <r>   18.5111    0.0000 </r>
       <r>   20.4418    0.0000 </r>
      </set>
      <set comment="kpoint 56">
       <r>   -3.9767    1.0000 </r>
       <r>   -2.4052    1.0000 </r>
       <r>    0.8583    1.0000 </r>
       <r>    1.9233    1.0000 </r>
       <r>    5.3407    0.0000 </r>
       <r>    7.1491    0.0000 </r>
       <r>   10.3573    0.0000 </r>
       <r>   10.6080    0.0000 </r>
       <r>   12.6744    0.0000 </r>
       <r>   13.3367    0.0000 </r>
       <r>   15.3960    0.0000 </r>
       <r>   15.9988    0.0000 </r>
       <r>   17.4581    0.0000 </r>
       <r>   18.4173    0.0000 </r>
       <r>   18.6576    0.0000 </r>
       <r>   20.7441    0.0000 </r>
      </set>
      <set comment="kpoint 57">
       <r>   -3.8077    1.0000 </r>
       <r>   -2.5795    1.0000 </r>
       <r>    0.5522    1.0000 </r>
       <r>    2.0517    1.0000 </r>
       <r>    5.4719    0.0000 </r>
       <r>    8.2219    0.0000 </r>
       <r>   10.2506    0.0000 </r>
       <r>   10.3000    0.0000 </r>
       <r>   11.4247    0.0000 </r>
       <r>   12.2687    0.0000 </r>
       <r>   16.4138    0.0000 </r>
       <r>   17.2670    0.0000 </r>
       <r>   17.4466    0.0000 </r>
       <r>   18.7200    0.0000 </r>
       <r>   18.9790    0.0000 </r>
       <r>   19.4597    0.0000 </r>
      </set>
      <set comment="kpoint 58">
       <r>   -4.0415    1.0000 </r>
       <r>   -2.3268    1.0000 </r>
       <r>    0.4514    1.0000 </r>
       <r>    2.2493    1.0000 </r>
       <r>    5.6709    0.0000 </r>
       <r>    9.4338    0.0000 </r>
       <r>    9.7935    0.0000 </r>
       <r>   10.1804    0.0000 </r>
       <r>   10.2262    0.0000 </r>
       <r>   11.5266    0.0000 </r>
       <r>   16.8713    0.0000 </r>
       <r>   17.6178    0.0000 </r>
       <r>   17.6935    0.0000 </r>
       <r>   18.4660    0.0000 </r>
       <r>   18.8093    0.0000 </r>
       <r>   19.7045    0.0000 </r>
      </set>
      <set comment="kpoint 59">
       <r>   -4.4430    1.0000 </r>
       <r>   -1.8744    1.0000 </r>
       <r>    1.7732    1.0000 </r>
       <r>    1.7732    1.0000 </r>
       <r>    4.8681    0.0000 </r>
       <r>    5.5739    0.0000 </r>
       <r>   11.4344    0.0000 </r>
       <r>   11.4344    0.0000 </r>
       <r>   13.1163    0.0000 </r>
       <r>   14.2845    0.0000 </r>
       <r>   15.4789    0.0000 </r>
       <r>   15.4789    0.0000 </r>
       <r>   15.8754    0.0000 </r>
       <r>   17.5893    0.0000 </r>
       <r>   19.3395    0.0000 </r>
       <r>   19.8367    0.0000 </r>
      </set>
      <set comment="kpoint 60">
       <r>   -4.0510    1.0000 </r>
       <r>   -2.3556    1.0000 </r>
       <r>    1.5317    1.0000 </r>
       <r>    1.7241    1.0000 </r>
       <r>    5.0154    0.0000 </r>
       <r>    5.5317    0.0000 </r>
       <r>   11.6319    0.0000 </r>
       <r>   11.7122    0.0000 </r>
       <r>   13.8236    0.0000 </r>
       <r>   14.5769    0.0000 </r>
       <r>   14.6078    0.0000 </r>
       <r>   15.0127    0.0000 </r>
       <r>   16.2992    0.0000 </r>
       <r>   17.2616    0.0000 </r>
       <r>   19.3434    0.0000 </r>
       <r>   20.6630    0.0000 </r>
      </set>
      <set comment="kpoint 61">
       <r>   -3.6383    1.0000 </r>
       <r>   -2.7916    1.0000 </r>
       <r>    1.1146    1.0000 </r>
       <r>    1.7561    1.0000 </r>
       <r>    5.1492    0.0000 </r>
       <r>    6.0956    0.0000 </r>
       <r>   11.5361    0.0000 </r>
       <r>   11.5852    0.0000 </r>
       <r>   12.9267    0.0000 </r>
       <r>   13.5811    0.0000 </r>
       <r>   15.2738    0.0000 </r>
       <r>   16.0435    0.0000 </r>
       <r>   16.9237    0.0000 </r>
       <r>   17.2836    0.0000 </r>
       <r>   19.1961    0.0000 </r>
       <r>   20.7895    0.0000 </r>
      </set>
      <set comment="kpoint 62">
       <r>   -3.4901    1.0000 </r>
       <r>   -2.9151    1.0000 </r>
       <r>    0.7360    1.0000 </r>
       <r>    1.8675    1.0000 </r>
       <r>    5.2733    0.0000 </r>
       <r>    7.0613    0.0000 </r>
       <r>   11.1071    0.0000 </r>
       <r>   11.2708    0.0000 </r>
       <r>   11.7722    0.0000 </r>
       <r>   12.7283    0.0000 </r>
       <r>   16.0532    0.0000 </r>
       <r>   17.3149    0.0000 </r>
       <r>   17.3368    0.0000 </r>
       <r>   17.8124    0.0000 </r>
       <r>   18.9691    0.0000 </r>
       <r>   19.4121    0.0000 </r>
      </set>
      <set comment="kpoint 63">
       <r>   -3.6682    1.0000 </r>
       <r>   -2.8070    1.0000 </r>
       <r>    1.6537    1.0000 </r>
       <r>    1.6537    1.0000 </r>
       <r>    4.9304    0.0000 </r>
       <r>    5.1646    0.0000 </r>
       <r>   12.3240    0.0000 </r>
       <r>   12.3240    0.0000 </r>
       <r>   14.2888    0.0000 </r>
       <r>   14.5484    0.0000 </r>
       <r>   14.5484    0.0000 </r>
       <r>   15.2469    0.0000 </r>
       <r>   15.3086    0.0000 </r>
       <r>   16.3501    0.0000 </r>
       <r>   20.7009    0.0000 </r>
       <r>   21.2541    0.0000 </r>
      </set>
      <set comment="kpoint 64">
       <r>   -3.2698    1.0000 </r>
       <r>   -3.2105    1.0000 </r>
       <r>    1.4646    1.0000 </r>
       <r>    1.6646    1.0000 </r>
       <r>    5.0538    0.0000 </r>
       <r>    5.3215    0.0000 </r>
       <r>   12.2781    0.0000 </r>
       <r>   12.2964    0.0000 </r>
       <r>   13.5724    0.0000 </r>
       <r>   14.0266    0.0000 </r>
       <r>   15.0328    0.0000 </r>
       <r>   15.6732    0.0000 </r>
       <r>   16.0205    0.0000 </r>
       <r>   16.1098    0.0000 </r>
       <r>   20.6943    0.0000 </r>
       <r>   20.9440    0.0000 </r>
      </set>
      <set comment="kpoint 65">
       <r>   -6.3896    1.0000 </r>
       <r>    1.8466    1.0000 </r>
       <r>    3.0602    1.0000 </r>
       <r>    3.5758    1.0000 </r>
       <r>    6.2919    0.0000 </r>
       <r>    6.4243    0.0000 </r>
       <r>    7.3745    0.0000 </r>
       <r>    8.0004    0.0000 </r>
       <r>   10.4340    0.0000 </r>
       <r>   11.6734    0.0000 </r>
       <r>   12.4630    0.0000 </r>
       <r>   14.6392    0.0000 </r>
       <r>   15.2382    0.0000 </r>
       <r>   16.4616    0.0000 </r>
       <r>   20.1893    0.0000 </r>
       <r>   21.0747    0.0000 </r>
      </set>
      <set comment="kpoint 66">
       <r>   -6.1522    1.0000 </r>
       <r>    0.9671    1.0000 </r>
       <r>    2.6707    1.0000 </r>
       <r>    3.4229    1.0000 </r>
       <r>    6.2568    0.0000 </r>
       <r>    6.6763    0.0000 </r>
       <r>    7.7246    0.0000 </r>
       <r>    8.5662    0.0000 </r>
       <r>   10.4299    0.0000 </r>
       <r>   11.8072    0.0000 </r>
       <r>   13.0115    0.0000 </r>
       <r>   14.6322    0.0000 </r>
       <r>   15.9914    0.0000 </r>
       <r>   17.5211    0.0000 </r>
       <r>   19.5468    0.0000 </r>
       <r>   20.6970    0.0000 </r>
      </set>
      <set comment="kpoint 67">
       <r>   -5.8316    1.0000 </r>
       <r>    0.0285    1.0000 </r>
       <r>    2.4043    1.0000 </r>
       <r>    3.2110    1.0000 </r>
       <r>    6.0904    0.0000 </r>
       <r>    7.0060    0.0000 </r>
       <r>    7.9547    0.0000 </r>
       <r>    8.9949    0.0000 </r>
       <r>   10.8201    0.0000 </r>
       <r>   12.3004    0.0000 </r>
       <r>   13.1152    0.0000 </r>
       <r>   15.1608    0.0000 </r>
       <r>   16.7867    0.0000 </r>
       <r>   18.2746    0.0000 </r>
       <r>   18.5594    0.0000 </r>
       <r>   19.9827    0.0000 </r>
      </set>
      <set comment="kpoint 68">
       <r>   -5.4475    1.0000 </r>
       <r>   -0.8573    1.0000 </r>
       <r>    2.2254    1.0000 </r>
       <r>    3.0068    1.0000 </r>
       <r>    5.9276    0.0000 </r>
       <r>    7.1942    0.0000 </r>
       <r>    7.9916    0.0000 </r>
       <r>    9.5736    0.0000 </r>
       <r>   11.4955    0.0000 </r>
       <r>   12.8395    0.0000 </r>
       <r>   13.2259    0.0000 </r>
       <r>   15.4847    0.0000 </r>
       <r>   16.6992    0.0000 </r>
       <r>   17.9258    0.0000 </r>
       <r>   19.0145    0.0000 </r>
       <r>   19.6639    0.0000 </r>
      </set>
      <set comment="kpoint 69">
       <r>   -5.0479    1.0000 </r>
       <r>   -1.6045    1.0000 </r>
       <r>    2.1168    1.0000 </r>
       <r>    2.8504    1.0000 </r>
       <r>    5.8072    0.0000 </r>
       <r>    7.2388    0.0000 </r>
       <r>    7.9443    0.0000 </r>
       <r>   10.3651    0.0000 </r>
       <r>   12.2524    0.0000 </r>
       <r>   12.7643    0.0000 </r>
       <r>   14.2369    0.0000 </r>
       <r>   14.5855    0.0000 </r>
       <r>   16.0598    0.0000 </r>
       <r>   17.7024    0.0000 </r>
       <r>   19.0992    0.0000 </r>
       <r>   20.6592    0.0000 </r>
      </set>
      <set comment="kpoint 70">
       <r>   -4.7522    1.0000 </r>
       <r>   -2.0772    1.0000 </r>
       <r>    2.0664    1.0000 </r>
       <r>    2.7657    1.0000 </r>
       <r>    5.7441    0.0000 </r>
       <r>    7.2347    0.0000 </r>
       <r>    7.9006    0.0000 </r>
       <r>   11.1944    0.0000 </r>
       <r>   12.2192    0.0000 </r>
       <r>   13.3194    0.0000 </r>
       <r>   13.9656    0.0000 </r>
       <r>   14.9012    0.0000 </r>
       <r>   15.4076    0.0000 </r>
       <r>   16.6361    0.0000 </r>
       <r>   20.4364    0.0000 </r>
       <r>   22.0308    0.0000 </r>
      </set>
      <set comment="kpoint 71">
       <r>   -6.0692    1.0000 </r>
       <r>    0.9183    1.0000 </r>
       <r>    2.5566    1.0000 </r>
       <r>    3.0006    1.0000 </r>
       <r>    5.9048    0.0000 </r>
       <r>    7.0363    0.0000 </r>
       <r>    8.3021    0.0000 </r>
       <r>    8.3520    0.0000 </r>
       <r>   10.3931    0.0000 </r>
       <r>   12.1741    0.0000 </r>
       <r>   13.3938    0.0000 </r>
       <r>   15.1187    0.0000 </r>
       <r>   15.8459    0.0000 </r>
       <r>   17.1956    0.0000 </r>
       <r>   19.5559    0.0000 </r>
       <r>   20.6501    0.0000 </r>
      </set>
      <set comment="kpoint 72">
       <r>   -5.7754    1.0000 </r>
       <r>    0.1442    1.0000 </r>
       <r>    2.1666    1.0000 </r>
       <r>    2.8337    1.0000 </r>
       <r>    6.0870    0.0000 </r>
       <r>    7.0965    0.0000 </r>
       <r>    8.3500    0.0000 </r>
       <r>    8.6577    0.0000 </r>
       <r>   11.0051    0.0000 </r>
       <r>   12.5962    0.0000 </r>
       <r>   13.7526    0.0000 </r>
       <r>   15.3174    0.0000 </r>
       <r>   16.5276    0.0000 </r>
       <r>   18.0368    0.0000 </r>
       <r>   18.3599    0.0000 </r>
       <r>   19.9708    0.0000 </r>
      </set>
      <set comment="kpoint 73">
       <r>   -5.4095    1.0000 </r>
       <r>   -0.6691    1.0000 </r>
       <r>    1.8777    1.0000 </r>
       <r>    2.6474    1.0000 </r>
       <r>    6.1618    0.0000 </r>
       <r>    7.3196    0.0000 </r>
       <r>    8.4004    0.0000 </r>
       <r>    8.8369    0.0000 </r>
       <r>   11.7876    0.0000 </r>
       <r>   13.3655    0.0000 </r>
       <r>   13.6202    0.0000 </r>
       <r>   15.5817    0.0000 </r>
       <r>   16.6323    0.0000 </r>
       <r>   17.7195    0.0000 </r>
       <r>   18.6899    0.0000 </r>
       <r>   20.2398    0.0000 </r>
      </set>
      <set comment="kpoint 74">
       <r>   -5.0057    1.0000 </r>
       <r>   -1.4171    1.0000 </r>
       <r>    1.6615    1.0000 </r>
       <r>    2.5155    1.0000 </r>
       <r>    6.1356    0.0000 </r>
       <r>    7.4240    0.0000 </r>
       <r>    8.6423    0.0000 </r>
       <r>    9.1151    0.0000 </r>
       <r>   12.6627    0.0000 </r>
       <r>   13.1552    0.0000 </r>
       <r>   14.4382    0.0000 </r>
       <r>   14.8470    0.0000 </r>
       <r>   16.0873    0.0000 </r>
       <r>   18.1589    0.0000 </r>
       <r>   19.6260    0.0000 </r>
       <r>   20.1102    0.0000 </r>
      </set>
      <set comment="kpoint 75">
       <r>   -4.6527    1.0000 </r>
       <r>   -1.9749    1.0000 </r>
       <r>    1.5053    1.0000 </r>
       <r>    2.4706    1.0000 </r>
       <r>    6.1198    0.0000 </r>
       <r>    7.3895    0.0000 </r>
       <r>    8.6346    0.0000 </r>
       <r>    9.9515    0.0000 </r>
       <r>   12.2777    0.0000 </r>
       <r>   13.6718    0.0000 </r>
       <r>   14.2226    0.0000 </r>
       <r>   15.0227    0.0000 </r>
       <r>   15.6695    0.0000 </r>
       <r>   18.2992    0.0000 </r>
       <r>   19.8272    0.0000 </r>
       <r>   21.3828    0.0000 </r>
      </set>
      <set comment="kpoint 76">
       <r>   -4.5387    1.0000 </r>
       <r>   -2.1389    1.0000 </r>
       <r>    1.4125    1.0000 </r>
       <r>    2.5181    1.0000 </r>
       <r>    6.1524    0.0000 </r>
       <r>    7.3548    0.0000 </r>
       <r>    8.5761    0.0000 </r>
       <r>   10.9388    0.0000 </r>
       <r>   11.3354    0.0000 </r>
       <r>   13.1973    0.0000 </r>
       <r>   14.3959    0.0000 </r>
       <r>   15.1436    0.0000 </r>
       <r>   16.7421    0.0000 </r>
       <r>   17.2586    0.0000 </r>
       <r>   20.4677    0.0000 </r>
       <r>   21.2871    0.0000 </r>
      </set>
      <set comment="kpoint 77">
       <r>   -4.7625    1.0000 </r>
       <r>   -1.8080    1.0000 </r>
       <r>    1.3959    1.0000 </r>
       <r>    2.6487    1.0000 </r>
       <r>    6.2368    0.0000 </r>
       <r>    7.3509    0.0000 </r>
       <r>    8.5254    0.0000 </r>
       <r>   10.2384    0.0000 </r>
       <r>   12.0286    0.0000 </r>
       <r>   12.3028    0.0000 </r>
       <r>   14.4643    0.0000 </r>
       <r>   15.7477    0.0000 </r>
       <r>   16.4362    0.0000 </r>
       <r>   18.0355    0.0000 </r>
       <r>   19.0369    0.0000 </r>
       <r>   20.9773    0.0000 </r>
      </set>
      <set comment="kpoint 78">
       <r>   -5.1492    1.0000 </r>
       <r>   -1.1684    1.0000 </r>
       <r>    1.4748    1.0000 </r>
       <r>    2.8440    1.0000 </r>
       <r>    6.3627    0.0000 </r>
       <r>    7.3258    0.0000 </r>
       <r>    8.4632    0.0000 </r>
       <r>    9.3870    0.0000 </r>
       <r>   11.3310    0.0000 </r>
       <r>   13.0198    0.0000 </r>
       <r>   14.4958    0.0000 </r>
       <r>   15.0606    0.0000 </r>
       <r>   17.0329    0.0000 </r>
       <r>   17.9272    0.0000 </r>
       <r>   19.1420    0.0000 </r>
[...]
       <r>   17.2705    0.0000 </r>
       <r>   17.5371    0.0000 </r>
       <r>   18.7198    0.0000 </r>
       <r>   19.2151    0.0000 </r>
       <r>   20.3736    0.0000 </r>
      </set>
      <set comment="kpoint 115">
       <r>   -3.5755    1.0000 </r>
       <r>   -2.8096    1.0000 </r>
       <r>    1.1460    1.0000 </r>
       <r>    1.2910    1.0000 </r>
       <r>    6.1078    0.0000 </r>
       <r>    6.2805    0.0000 </r>
       <r>   10.2383    0.0000 </r>
       <r>   11.2145    0.0000 </r>
       <r>   12.9359    0.0000 </r>
       <r>   13.8566    0.0000 </r>
       <r>   15.0546    0.0000 </r>
       <r>   15.9691    0.0000 </r>
       <r>   17.4138    0.0000 </r>
       <r>   18.6082    0.0000 </r>
       <r>   19.2053    0.0000 </r>
       <r>   20.1560    0.0000 </r>
      </set>
      <set comment="kpoint 116">
       <r>   -3.3450    1.0000 </r>
       <r>   -3.0146    1.0000 </r>
       <r>    0.8420    1.0000 </r>
       <r>    1.3256    1.0000 </r>
       <r>    6.3079    0.0000 </r>
       <r>    7.1685    0.0000 </r>
       <r>    9.9699    0.0000 </r>
       <r>   10.0906    0.0000 </r>
       <r>   12.8484    0.0000 </r>
       <r>   13.5657    0.0000 </r>
       <r>   15.2974    0.0000 </r>
       <r>   16.1195    0.0000 </r>
       <r>   18.4850    0.0000 </r>
       <r>   18.9677    0.0000 </r>
       <r>   19.3958    0.0000 </r>
       <r>   19.6802    0.0000 </r>
      </set>
      <set comment="kpoint 117">
       <r>   -4.1114    1.0000 </r>
       <r>   -2.1984    1.0000 </r>
       <r>    0.7866    1.0000 </r>
       <r>    1.5948    1.0000 </r>
       <r>    7.2254    0.0000 </r>
       <r>    7.6207    0.0000 </r>
       <r>    7.9738    0.0000 </r>
       <r>   10.8309    0.0000 </r>
       <r>   11.6772    0.0000 </r>
       <r>   13.1194    0.0000 </r>
       <r>   15.7765    0.0000 </r>
       <r>   16.9807    0.0000 </r>
       <r>   17.1898    0.0000 </r>
       <r>   18.0793    0.0000 </r>
       <r>   18.8662    0.0000 </r>
       <r>   20.8873    0.0000 </r>
      </set>
      <set comment="kpoint 118">
       <r>   -3.7686    1.0000 </r>
       <r>   -2.5586    1.0000 </r>
       <r>    0.6799    1.0000 </r>
       <r>    1.4207    1.0000 </r>
       <r>    7.4947    0.0000 </r>
       <r>    7.7177    0.0000 </r>
       <r>    8.5162    0.0000 </r>
       <r>    9.6721    0.0000 </r>
       <r>   11.9165    0.0000 </r>
       <r>   13.7503    0.0000 </r>
       <r>   15.1048    0.0000 </r>
       <r>   16.8953    0.0000 </r>
       <r>   17.7914    0.0000 </r>
       <r>   19.0493    0.0000 </r>
       <r>   19.5505    0.0000 </r>
       <r>   20.6287    0.0000 </r>
      </set>
      <set comment="kpoint 119">
       <r>   -3.4862    1.0000 </r>
       <r>   -2.8406    1.0000 </r>
       <r>    0.8607    1.0000 </r>
       <r>    1.1319    1.0000 </r>
       <r>    7.2419    0.0000 </r>
       <r>    7.3889    0.0000 </r>
       <r>    8.8131    0.0000 </r>
       <r>    9.8230    0.0000 </r>
       <r>   12.8232    0.0000 </r>
       <r>   13.7698    0.0000 </r>
       <r>   15.1737    0.0000 </r>
       <r>   16.0915    0.0000 </r>
       <r>   18.4626    0.0000 </r>
       <r>   19.3214    0.0000 </r>
       <r>   19.4664    0.0000 </r>
       <r>   20.3411    0.0000 </r>
      </set>
      <set comment="kpoint 120">
       <r>   -3.4032    1.0000 </r>
       <r>   -2.9120    1.0000 </r>
       <r>    0.7462    1.0000 </r>
       <r>    1.1456    1.0000 </r>
       <r>    7.4738    0.0000 </r>
       <r>    8.4319    0.0000 </r>
       <r>    8.5576    0.0000 </r>
       <r>    8.6874    0.0000 </r>
       <r>   12.8131    0.0000 </r>
       <r>   13.6670    0.0000 </r>
       <r>   15.2552    0.0000 </r>
       <r>   16.1570    0.0000 </r>
       <r>   18.5870    0.0000 </r>
       <r>   19.3774    0.0000 </r>
       <r>   20.1724    0.0000 </r>
       <r>   20.3729    0.0000 </r>
      </set>
     </set>
    </set>
   </array>
  </eigenvalues>
  <separator name="orbital magnetization" >
   <v name="MAGDIPOLOUT">      0.00000000      0.00000000      0.00000000</v>
  </separator>
  <dos>
   <i name="efermi">      4.44566613 </i>
   <total>
    <array>
     <dimension dim="1">gridpoints</dimension>
     <dimension dim="2">spin</dimension>
     <field>energy</field>
     <field>total</field>
     <field>integrated</field>
     <set>
      <set comment="spin 1">
       <r>    -8.2925     0.0000     0.0000 </r>
       <r>    -8.1768     0.0000     0.0000 </r>
       <r>    -8.0610     0.0000     0.0000 </r>
       <r>    -7.9452     0.0000     0.0000 </r>
       <r>    -7.8294     0.0000     0.0000 </r>
       <r>    -7.7136     0.0000     0.0000 </r>
       <r>    -7.5978     0.0000     0.0000 </r>
       <r>    -7.4820     0.0000     0.0000 </r>
       <r>    -7.3663     0.0000     0.0000 </r>
       <r>    -7.2505     0.0000     0.0000 </r>
       <r>    -7.1347     0.0000     0.0000 </r>
       <r>    -7.0189     0.0000     0.0000 </r>
       <r>    -6.9031     0.0000     0.0000 </r>
       <r>    -6.7873     0.0033     0.0004 </r>
       <r>    -6.6716     0.0411     0.0051 </r>
       <r>    -6.5558     0.1319     0.0204 </r>
       <r>    -6.4400     0.2023     0.0438 </r>
       <r>    -6.3242     0.2714     0.0753 </r>
       <r>    -6.2084     0.2900     0.1088 </r>
       <r>    -6.0926     0.3779     0.1526 </r>
       <r>    -5.9768     0.3639     0.1947 </r>
       <r>    -5.8611     0.4326     0.2448 </r>
       <r>    -5.7453     0.5030     0.3031 </r>
       <r>    -5.6295     0.4432     0.3544 </r>
       <r>    -5.5137     0.5720     0.4206 </r>
       <r>    -5.3979     0.6300     0.4935 </r>
       <r>    -5.2821     0.5580     0.5581 </r>
       <r>    -5.1663     0.6754     0.6364 </r>
       <r>    -5.0506     0.8319     0.7327 </r>
       <r>    -4.9348     0.7761     0.8225 </r>
       <r>    -4.8190     0.8658     0.9228 </r>
       <r>    -4.7032     1.2003     1.0618 </r>
       <r>    -4.5874     0.9622     1.1732 </r>
       <r>    -4.4716     0.8669     1.2735 </r>
       <r>    -4.3558     0.9704     1.3859 </r>
       <r>    -4.2401     0.9061     1.4908 </r>
       <r>    -4.1243     0.6347     1.5643 </r>
       <r>    -4.0085     0.7919     1.6560 </r>
       <r>    -3.8927     0.7384     1.7415 </r>
       <r>    -3.7769     0.4566     1.7944 </r>
       <r>    -3.6611     0.5747     1.8609 </r>
       <r>    -3.5453     0.5309     1.9224 </r>
       <r>    -3.4296     0.2631     1.9528 </r>
       <r>    -3.3138     0.2471     1.9815 </r>
       <r>    -3.1980     0.1938     2.0039 </r>
       <r>    -3.0822     0.1355     2.0196 </r>
       <r>    -2.9664     0.1564     2.0377 </r>
       <r>    -2.8506     0.3037     2.0729 </r>
       <r>    -2.7348     0.5183     2.1329 </r>
       <r>    -2.6191     0.4715     2.1875 </r>
       <r>    -2.5033     0.4384     2.2382 </r>
       <r>    -2.3875     0.7797     2.3285 </r>
       <r>    -2.2717     0.9235     2.4354 </r>
       <r>    -2.1559     1.0226     2.5538 </r>
       <r>    -2.0401     1.3940     2.7152 </r>
       <r>    -1.9243     1.2413     2.8590 </r>
       <r>    -1.8086     0.7898     2.9504 </r>
       <r>    -1.6928     0.6952     3.0309 </r>
       <r>    -1.5770     0.6829     3.1100 </r>
       <r>    -1.4612     0.6499     3.1852 </r>
       <r>    -1.3454     0.6019     3.2549 </r>
       <r>    -1.2296     0.3549     3.2960 </r>
       <r>    -1.1138     0.4748     3.3510 </r>
       <r>    -0.9981     0.5262     3.4119 </r>
       <r>    -0.8823     0.4166     3.4601 </r>
       <r>    -0.7665     0.2804     3.4926 </r>
       <r>    -0.6507     0.3329     3.5311 </r>
       <r>    -0.5349     0.3220     3.5684 </r>
       <r>    -0.4191     0.3196     3.6054 </r>
       <r>    -0.3033     0.3350     3.6442 </r>
       <r>    -0.1876     0.2525     3.6735 </r>
       <r>    -0.0718     0.1215     3.6875 </r>
       <r>     0.0440     0.2301     3.7142 </r>
       <r>     0.1598     0.2830     3.7469 </r>
       <r>     0.2756     0.1966     3.7697 </r>
       <r>     0.3914     0.2105     3.7941 </r>
       <r>     0.5071     0.3966     3.8400 </r>
       <r>     0.6229     0.9218     3.9467 </r>
       <r>     0.7387     1.3315     4.1009 </r>
       <r>     0.8545     1.4475     4.2685 </r>
       <r>     0.9703     1.3840     4.4287 </r>
       <r>     1.0861     1.2379     4.5720 </r>
       <r>     1.2019     1.3526     4.7287 </r>
       <r>     1.3176     1.0770     4.8534 </r>
       <r>     1.4334     1.3747     5.0125 </r>
       <r>     1.5492     1.6452     5.2030 </r>
       <r>     1.6650     1.5296     5.3801 </r>
       <r>     1.7808     1.7913     5.5875 </r>
       <r>     1.8966     1.9405     5.8122 </r>
       <r>     2.0124     1.5210     5.9883 </r>
       <r>     2.1281     1.7187     6.1873 </r>
       <r>     2.2439     1.9421     6.4122 </r>
       <r>     2.3597     1.3618     6.5699 </r>
       <r>     2.4755     1.3875     6.7305 </r>
       <r>     2.5913     1.6980     6.9271 </r>
       <r>     2.7071     1.5780     7.1098 </r>
       <r>     2.8229     1.4143     7.2736 </r>
       <r>     2.9386     1.2976     7.4238 </r>
       <r>     3.0544     1.1814     7.5606 </r>
       <r>     3.1702     0.9308     7.6684 </r>
       <r>     3.2860     0.7275     7.7526 </r>
       <r>     3.4018     0.5852     7.8204 </r>
       <r>     3.5176     0.4979     7.8780 </r>
       <r>     3.6334     0.4357     7.9285 </r>
       <r>     3.7491     0.2690     7.9596 </r>
       <r>     3.8649     0.1878     7.9814 </r>
       <r>     3.9807     0.1188     7.9951 </r>
       <r>     4.0965     0.0397     7.9997 </r>
       <r>     4.2123     0.0025     8.0000 </r>
       <r>     4.3281     0.0000     8.0000 </r>
       <r>     4.4439     0.0000     8.0000 </r>
       <r>     4.5596     0.0000     8.0000 </r>
       <r>     4.6754     0.0002     8.0000 </r>
       <r>     4.7912     0.0108     8.0013 </r>
       <r>     4.9070     0.0799     8.0105 </r>
       <r>     5.0228     0.2054     8.0343 </r>
       <r>     5.1386     0.3115     8.0704 </r>
       <r>     5.2544     0.5954     8.1393 </r>
       <r>     5.3701     0.8206     8.2343 </r>
       <r>     5.4859     0.8966     8.3381 </r>
       <r>     5.6017     1.1302     8.4690 </r>
       <r>     5.7175     1.0756     8.5935 </r>
       <r>     5.8333     1.5798     8.7765 </r>
       <r>     5.9491     1.8122     8.9863 </r>
       <r>     6.0649     1.8173     9.1967 </r>
       <r>     6.1806     2.0293     9.4317 </r>
       <r>     6.2964     1.6962     9.6281 </r>
       <r>     6.4122     1.2955     9.7781 </r>
       <r>     6.5280     1.1167     9.9074 </r>
       <r>     6.6438     1.3696    10.0659 </r>
       <r>     6.7596     1.3186    10.2186 </r>
       <r>     6.8754     0.6960    10.2992 </r>
       <r>     6.9911     0.8761    10.4006 </r>
       <r>     7.1069     1.5275    10.5775 </r>
       <r>     7.2227     2.1073    10.8215 </r>
       <r>     7.3385     2.7687    11.1421 </r>
       <r>     7.4543     2.5641    11.4390 </r>
       <r>     7.5701     1.7558    11.6423 </r>
       <r>     7.6859     1.2645    11.7887 </r>
       <r>     7.8016     1.0037    11.9049 </r>
       <r>     7.9174     1.0684    12.0286 </r>
       <r>     8.0332     1.5612    12.2093 </r>
       <r>     8.1490     1.5146    12.3847 </r>
       <r>     8.2648     1.4040    12.5473 </r>
       <r>     8.3806     1.4929    12.7201 </r>
       <r>     8.4963     1.6307    12.9089 </r>
       <r>     8.6121     1.9871    13.1390 </r>
       <r>     8.7279     1.7585    13.3426 </r>
       <r>     8.8437     1.3623    13.5004 </r>
       <r>     8.9595     1.2026    13.6396 </r>
       <r>     9.0753     1.3349    13.7942 </r>
       <r>     9.1911     0.9573    13.9050 </r>
       <r>     9.3068     0.8839    14.0074 </r>
       <r>     9.4226     1.2912    14.1569 </r>
       <r>     9.5384     1.4430    14.3239 </r>
       <r>     9.6542     1.5038    14.4981 </r>
       <r>     9.7700     1.3722    14.6569 </r>
       <r>     9.8858     1.0405    14.7774 </r>
       <r>    10.0016     0.8457    14.8753 </r>
       <r>    10.1173     0.5943    14.9442 </r>
       <r>    10.2331     1.0058    15.0606 </r>
       <r>    10.3489     1.3904    15.2216 </r>
       <r>    10.4647     1.3979    15.3835 </r>
       <r>    10.5805     1.4813    15.5550 </r>
       <r>    10.6963     1.6105    15.7414 </r>
       <r>    10.8121     1.5574    15.9218 </r>
       <r>    10.9278     1.1684    16.0570 </r>
       <r>    11.0436     0.9910    16.1718 </r>
       <r>    11.1594     1.0272    16.2907 </r>
       <r>    11.2752     1.3687    16.4492 </r>
       <r>    11.3910     1.6900    16.6449 </r>
       <r>    11.5068     1.6305    16.8337 </r>
       <r>    11.6226     1.4955    17.0068 </r>
       <r>    11.7383     1.1643    17.1416 </r>
       <r>    11.8541     0.8216    17.2368 </r>
       <r>    11.9699     0.9046    17.3415 </r>
       <r>    12.0857     1.5010    17.5153 </r>
       <r>    12.2015     1.7622    17.7193 </r>
       <r>    12.3173     1.9184    17.9415 </r>
       <r>    12.4331     1.4655    18.1111 </r>
       <r>    12.5488     1.3197    18.2639 </r>
       <r>    12.6646     1.4744    18.4347 </r>
       <r>    12.7804     1.4020    18.5970 </r>
       <r>    12.8962     1.5125    18.7721 </r>
       <r>    13.0120     1.5393    18.9503 </r>
       <r>    13.1278     1.4053    19.1131 </r>
       <r>    13.2436     1.7306    19.3134 </r>
       <r>    13.3593     1.6519    19.5047 </r>
       <r>    13.4751     1.3171    19.6572 </r>
       <r>    13.5909     1.7475    19.8595 </r>
       <r>    13.7067     1.6239    20.0476 </r>
       <r>    13.8225     1.2389    20.1910 </r>
       <r>    13.9383     1.2679    20.3378 </r>
       <r>    14.0541     1.2955    20.4878 </r>
       <r>    14.1698     1.0011    20.6037 </r>
       <r>    14.2856     0.9682    20.7158 </r>
       <r>    14.4014     1.0839    20.8413 </r>
       <r>    14.5172     1.6980    21.0379 </r>
       <r>    14.6330     1.8987    21.2578 </r>
       <r>    14.7488     1.7183    21.4567 </r>
       <r>    14.8646     1.5773    21.6394 </r>
       <r>    14.9803     1.6186    21.8268 </r>
       <r>    15.0961     1.3943    21.9882 </r>
       <r>    15.2119     1.7245    22.1879 </r>
       <r>    15.3277     1.8272    22.3995 </r>
       <r>    15.4435     1.8938    22.6187 </r>
       <r>    15.5593     1.8690    22.8351 </r>
       <r>    15.6751     2.0971    23.0780 </r>
       <r>    15.7908     1.8779    23.2954 </r>
       <r>    15.9066     1.4611    23.4646 </r>
       <r>    16.0224     1.9702    23.6927 </r>
       <r>    16.1382     1.9302    23.9162 </r>
       <r>    16.2540     1.0419    24.0368 </r>
       <r>    16.3698     1.5333    24.2144 </r>
       <r>    16.4855     2.2744    24.4777 </r>
       <r>    16.6013     1.8916    24.6967 </r>
       <r>    16.7171     2.1715    24.9481 </r>
       <r>    16.8329     2.0220    25.1823 </r>
       <r>    16.9487     1.3625    25.3400 </r>
       <r>    17.0645     1.3475    25.4960 </r>
       <r>    17.1803     1.4697    25.6662 </r>
       <r>    17.2960     1.4225    25.8309 </r>
       <r>    17.4118     1.2686    25.9778 </r>
       <r>    17.5276     1.6339    26.1670 </r>
       <r>    17.6434     1.8194    26.3776 </r>
       <r>    17.7592     1.4858    26.5497 </r>
       <r>    17.8750     1.6557    26.7414 </r>
       <r>    17.9908     1.6152    26.9284 </r>
       <r>    18.1065     1.3560    27.0854 </r>
       <r>    18.2223     1.3675    27.2437 </r>
       <r>    18.3381     1.5865    27.4274 </r>
       <r>    18.4539     1.9649    27.6549 </r>
       <r>    18.5697     1.5999    27.8402 </r>
       <r>    18.6855     1.7618    28.0442 </r>
       <r>    18.8013     1.6004    28.2295 </r>
       <r>    18.9170     1.6539    28.4210 </r>
       <r>    19.0328     1.5805    28.6040 </r>
       <r>    19.1486     1.5563    28.7842 </r>
       <r>    19.2644     1.3062    28.9354 </r>
       <r>    19.3802     1.2519    29.0804 </r>
       <r>    19.4960     1.9354    29.3045 </r>
       <r>    19.6118     2.7715    29.6254 </r>
       <r>    19.7275     2.4692    29.9113 </r>
       <r>    19.8433     1.4439    30.0784 </r>
       <r>    19.9591     1.3842    30.2387 </r>
       <r>    20.0749     1.8542    30.4534 </r>
       <r>    20.1907     1.9981    30.6848 </r>
       <r>    20.3065     1.8350    30.8972 </r>
       <r>    20.4223     1.7993    31.1056 </r>
       <r>    20.5380     1.4760    31.2765 </r>
       <r>    20.6538     1.3024    31.4273 </r>
       <r>    20.7696     1.2356    31.5703 </r>
       <r>    20.8854     0.4361    31.6208 </r>
       <r>    21.0012     0.4676    31.6749 </r>
       <r>    21.1170     0.5396    31.7374 </r>
       <r>    21.2328     0.3201    31.7745 </r>
       <r>    21.3485     0.3396    31.8138 </r>
       <r>    21.4643     0.3333    31.8524 </r>
       <r>    21.5801     0.2778    31.8846 </r>
       <r>    21.6959     0.1214    31.8986 </r>
       <r>    21.8117     0.0149    31.9003 </r>
       <r>    21.9275     0.0857    31.9103 </r>
       <r>    22.0433     0.2597    31.9403 </r>
       <r>    22.1590     0.1430    31.9569 </r>
       <r>    22.2748     0.0262    31.9599 </r>
       <r>    22.3906     0.0037    31.9604 </r>
       <r>    22.5064     0.0188    31.9625 </r>
       <r>    22.6222     0.1046    31.9746 </r>
       <r>    22.7380     0.1157    31.9880 </r>
       <r>    22.8538     0.0257    31.9910 </r>
       <r>    22.9695     0.0009    31.9911 </r>
       <r>    23.0853     0.0000    31.9911 </r>
       <r>    23.2011     0.0000    31.9911 </r>
       <r>    23.3169     0.0000    31.9911 </r>
       <r>    23.4327     0.0000    31.9911 </r>
       <r>    23.5485     0.0000    31.9911 </r>
       <r>    23.6643     0.0019    31.9913 </r>
       <r>    23.7800     0.0148    31.9930 </r>
       <r>    23.8958     0.0178    31.9951 </r>
       <r>    24.0116     0.0242    31.9979 </r>
       <r>    24.1274     0.0122    31.9993 </r>
       <r>    24.2432     0.0007    31.9994 </r>
       <r>    24.3590     0.0000    31.9994 </r>
       <r>    24.4747     0.0000    31.9994 </r>
       <r>    24.5905     0.0000    31.9994 </r>
       <r>    24.7063     0.0001    31.9994 </r>
       <r>    24.8221     0.0013    31.9996 </r>
       <r>    24.9379     0.0029    31.9999 </r>
       <r>    25.0537     0.0007    32.0000 </r>
       <r>    25.1695     0.0000    32.0000 </r>
       <r>    25.2852     0.0000    32.0000 </r>
       <r>    25.4010     0.0000    32.0000 </r>
       <r>    25.5168     0.0000    32.0000 </r>
       <r>    25.6326     0.0000    32.0000 </r>
       <r>    25.7484     0.0000    32.0000 </r>
       <r>    25.8642     0.0000    32.0000 </r>
       <r>    25.9800     0.0000    32.0000 </r>
       <r>    26.0957     0.0000    32.0000 </r>
       <r>    26.2115     0.0000    32.0000 </r>
       <r>    26.3273     0.0000    32.0000 </r>
       <r>    26.4431     0.0000    32.0000 </r>
      </set>
     </set>
    </array>
   </total>
  </dos>
 </calculation>
 <structure name="finalpos" >
  <crystal>
   <varray name="basis" >
    <v>       0.00000000       2.90000000       2.90000000 </v>
    <v>       2.90000000       0.00000000       2.90000000 </v>
    <v>       2.90000000       2.90000000       0.00000000 </v>
   </varray>
   <i name="volume">     48.77800000 </i>
   <varray name="rec_basis" >
    <v>      -0.17241379       0.17241379       0.17241379 </v>
    <v>       0.17241379      -0.17241379       0.17241379 </v>
    <v>       0.17241379       0.17241379      -0.17241379 </v>
   </varray>
  </crystal>
  <varray name="positions" >
   <v>       0.87500000       0.87500000       0.87500000 </v>
   <v>       0.12500000       0.12500000       0.12500000 </v>
  </varray>
 </structure>
</modeling>
