   2   2   0   0
  0.2044258E+02  0.3866876E-09  0.3866876E-09  0.3866876E-09  0.5000000E-15
  1.000000000000000E-004
  CAR 
 Real silicon                            
     30.31073125     -7.83110166  301      6.03009504      1.00000000
     -7.831  0.0000E+00  0.0000E+00
     -7.704  0.0000E+00  0.0000E+00
     -7.577  0.0000E+00  0.0000E+00
     -7.450  0.0000E+00  0.0000E+00
     -7.323  0.0000E+00  0.0000E+00
     -7.195  0.0000E+00  0.0000E+00
     -7.068  0.0000E+00  0.0000E+00
     -6.941  0.0000E+00  0.0000E+00
     -6.814  0.0000E+00  0.0000E+00
     -6.687  0.1310E-16  0.1665E-17
     -6.560  0.1212E-10  0.1542E-11
     -6.433  0.4745E-06  0.6033E-07
     -6.305  0.8676E-03  0.1104E-03
     -6.178  0.8709E-01  0.1118E-01
     -6.051  0.6879E+00  0.9864E-01
     -5.924  0.8366E+00  0.2050E+00
     -5.797  0.5408E+00  0.2738E+00
     -5.670  0.4213E+00  0.3273E+00
     -5.543  0.3611E+00  0.3732E+00
     -5.415  0.3225E+00  0.4142E+00
     -5.288  0.2950E+00  0.4518E+00
     -5.161  0.2744E+00  0.4866E+00
     -5.034  0.2583E+00  0.5195E+00
     -4.907  0.2456E+00  0.5507E+00
     -4.780  0.2354E+00  0.5806E+00
     -4.653  0.2274E+00  0.6095E+00
     -4.525  0.2213E+00  0.6377E+00
     -4.398  0.2173E+00  0.6653E+00
     -4.271  0.2155E+00  0.6927E+00
     -4.144  0.2174E+00  0.7204E+00
     -4.017  0.2271E+00  0.7492E+00
     -3.890  0.3009E+00  0.7875E+00
     -3.763  0.5828E+00  0.8616E+00
     -3.636  0.5325E+00  0.9293E+00
     -3.508  0.3610E+00  0.9752E+00
     -3.381  0.3048E+00  0.1014E+01
     -3.254  0.2773E+00  0.1049E+01
     -3.127  0.2602E+00  0.1082E+01
     -3.000  0.2490E+00  0.1114E+01
     -2.873  0.2419E+00  0.1145E+01
     -2.746  0.2382E+00  0.1175E+01
     -2.618  0.2383E+00  0.1205E+01
     -2.491  0.2595E+00  0.1238E+01
     -2.364  0.3854E+00  0.1287E+01
     -2.237  0.5495E+00  0.1357E+01
     -2.110  0.1051E+01  0.1491E+01
     -1.983  0.3276E+01  0.1907E+01
     -1.856  0.3801E+01  0.2391E+01
     -1.728  0.1563E+01  0.2589E+01
     -1.601  0.5641E+00  0.2661E+01
     -1.474  0.4611E+00  0.2720E+01
     -1.347  0.3531E+00  0.2764E+01
     -1.220  0.3907E+00  0.2814E+01
     -1.093  0.9956E+00  0.2941E+01
     -0.966  0.1132E+01  0.3085E+01
     -0.838  0.4533E+00  0.3142E+01
     -0.711  0.1828E+00  0.3166E+01
     -0.584  0.1633E+00  0.3186E+01
     -0.457  0.1556E+00  0.3206E+01
     -0.330  0.1496E+00  0.3225E+01
     -0.203  0.1448E+00  0.3244E+01
     -0.076  0.1408E+00  0.3261E+01
      0.052  0.1373E+00  0.3279E+01
      0.179  0.1342E+00  0.3296E+01
      0.306  0.1315E+00  0.3313E+01
      0.433  0.1291E+00  0.3329E+01
      0.560  0.1270E+00  0.3345E+01
      0.687  0.1250E+00  0.3361E+01
      0.814  0.1232E+00  0.3377E+01
      0.942  0.1216E+00  0.3392E+01
      1.069  0.1201E+00  0.3408E+01
      1.196  0.1195E+00  0.3423E+01
      1.323  0.1685E+00  0.3444E+01
      1.450  0.4226E+00  0.3498E+01
      1.577  0.5791E+00  0.3571E+01
      1.704  0.8093E+00  0.3674E+01
      1.831  0.8716E+00  0.3785E+01
      1.959  0.1187E+01  0.3936E+01
      2.086  0.1478E+01  0.4124E+01
      2.213  0.1159E+01  0.4271E+01
      2.340  0.1013E+01  0.4400E+01
      2.467  0.9591E+00  0.4522E+01
      2.594  0.9518E+00  0.4643E+01
      2.721  0.1008E+01  0.4771E+01
      2.849  0.1410E+01  0.4951E+01
      2.976  0.2444E+01  0.5261E+01
      3.103  0.1871E+01  0.5499E+01
      3.230  0.1216E+01  0.5654E+01
      3.357  0.9701E+00  0.5777E+01
      3.484  0.7350E+00  0.5870E+01
      3.611  0.6445E+00  0.5952E+01
      3.739  0.6203E+00  0.6031E+01
      3.866  0.6071E+00  0.6108E+01
      3.993  0.6019E+00  0.6185E+01
      4.120  0.6056E+00  0.6262E+01
      4.247  0.6221E+00  0.6341E+01
      4.374  0.6706E+00  0.6426E+01
      4.501  0.9680E+00  0.6549E+01
      4.629  0.1564E+01  0.6748E+01
      4.756  0.1214E+01  0.6903E+01
      4.883  0.9199E+00  0.7020E+01
      5.010  0.8367E+00  0.7126E+01
      5.137  0.8083E+00  0.7229E+01
      5.264  0.8126E+00  0.7332E+01
      5.391  0.8534E+00  0.7441E+01
      5.519  0.9626E+00  0.7563E+01
      5.646  0.1310E+01  0.7730E+01
      5.773  0.1624E+01  0.7936E+01
      5.900  0.4880E+00  0.7998E+01
      6.027  0.1451E-01  0.8000E+01
      6.154  0.7427E-02  0.8001E+01
      6.281  0.2048E+00  0.8027E+01
      6.409  0.1018E+01  0.8156E+01
      6.536  0.1986E+01  0.8409E+01
      6.663  0.1528E+01  0.8603E+01
      6.790  0.1110E+01  0.8744E+01
      6.917  0.9048E+00  0.8859E+01
      7.044  0.6907E+00  0.8947E+01
      7.171  0.7829E+00  0.9047E+01
      7.298  0.1101E+01  0.9187E+01
      7.426  0.9328E+00  0.9305E+01
      7.553  0.8038E+00  0.9407E+01
      7.680  0.7512E+00  0.9503E+01
      7.807  0.7262E+00  0.9595E+01
      7.934  0.7206E+00  0.9687E+01
      8.061  0.7432E+00  0.9781E+01
      8.188  0.1048E+01  0.9915E+01
      8.316  0.2145E+01  0.1019E+02
      8.443  0.1892E+01  0.1043E+02
      8.570  0.1492E+01  0.1062E+02
      8.697  0.1530E+01  0.1081E+02
      8.824  0.1618E+01  0.1102E+02
      8.951  0.2060E+01  0.1128E+02
      9.078  0.2661E+01  0.1162E+02
      9.206  0.2714E+01  0.1196E+02
      9.333  0.1675E+01  0.1218E+02
      9.460  0.9692E+00  0.1230E+02
      9.587  0.8889E+00  0.1241E+02
      9.714  0.8758E+00  0.1252E+02
      9.841  0.9020E+00  0.1264E+02
      9.968  0.9930E+00  0.1276E+02
     10.096  0.8017E+00  0.1287E+02
     10.223  0.3965E+00  0.1292E+02
     10.350  0.3276E+00  0.1296E+02
     10.477  0.3402E+00  0.1300E+02
     10.604  0.5347E+00  0.1307E+02
     10.731  0.7416E+00  0.1316E+02
     10.858  0.6553E+00  0.1325E+02
     10.986  0.6069E+00  0.1332E+02
     11.113  0.6061E+00  0.1340E+02
     11.240  0.6966E+00  0.1349E+02
     11.367  0.8297E+00  0.1360E+02
     11.494  0.6923E+00  0.1368E+02
     11.621  0.6115E+00  0.1376E+02
     11.748  0.6915E+00  0.1385E+02
     11.876  0.9429E+00  0.1397E+02
     12.003  0.8348E+00  0.1408E+02
     12.130  0.7866E+00  0.1418E+02
     12.257  0.8027E+00  0.1428E+02
     12.384  0.7199E+00  0.1437E+02
     12.511  0.7089E+00  0.1446E+02
     12.638  0.8098E+00  0.1456E+02
     12.765  0.1274E+01  0.1472E+02
     12.893  0.1424E+01  0.1491E+02
     13.020  0.1220E+01  0.1506E+02
     13.147  0.1231E+01  0.1522E+02
     13.274  0.1566E+01  0.1542E+02
     13.401  0.2293E+01  0.1571E+02
     13.528  0.2228E+01  0.1599E+02
     13.655  0.1815E+01  0.1622E+02
     13.783  0.1582E+01  0.1642E+02
     13.910  0.1268E+01  0.1658E+02
     14.037  0.1122E+01  0.1673E+02
     14.164  0.1103E+01  0.1687E+02
     14.291  0.1129E+01  0.1701E+02
     14.418  0.1139E+01  0.1715E+02
     14.545  0.1299E+01  0.1732E+02
     14.673  0.1433E+01  0.1750E+02
     14.800  0.1385E+01  0.1768E+02
     14.927  0.1169E+01  0.1783E+02
     15.054  0.1101E+01  0.1797E+02
     15.181  0.1119E+01  0.1811E+02
     15.308  0.1160E+01  0.1826E+02
     15.435  0.1297E+01  0.1842E+02
     15.563  0.1729E+01  0.1864E+02
     15.690  0.1953E+01  0.1889E+02
     15.817  0.1147E+01  0.1904E+02
     15.944  0.8306E+00  0.1914E+02
     16.071  0.1096E+01  0.1928E+02
     16.198  0.3103E+01  0.1967E+02
     16.325  0.2976E+01  0.2005E+02
     16.453  0.1409E+01  0.2023E+02
     16.580  0.1391E+01  0.2041E+02
     16.707  0.1718E+01  0.2063E+02
     16.834  0.2048E+01  0.2089E+02
     16.961  0.2546E+01  0.2121E+02
     17.088  0.2038E+01  0.2147E+02
     17.215  0.1546E+01  0.2167E+02
     17.343  0.1355E+01  0.2184E+02
     17.470  0.1228E+01  0.2200E+02
     17.597  0.1124E+01  0.2214E+02
     17.724  0.1040E+01  0.2227E+02
     17.851  0.9722E+00  0.2239E+02
     17.978  0.9273E+00  0.2251E+02
     18.105  0.1166E+01  0.2266E+02
     18.232  0.1896E+01  0.2290E+02
     18.360  0.2335E+01  0.2320E+02
     18.487  0.2941E+01  0.2357E+02
     18.614  0.3578E+01  0.2403E+02
     18.741  0.2354E+01  0.2433E+02
     18.868  0.1721E+01  0.2455E+02
     18.995  0.1796E+01  0.2477E+02
     19.122  0.1887E+01  0.2501E+02
     19.250  0.1606E+01  0.2522E+02
     19.377  0.1513E+01  0.2541E+02
     19.504  0.1350E+01  0.2558E+02
     19.631  0.1229E+01  0.2574E+02
     19.758  0.1102E+01  0.2588E+02
     19.885  0.1079E+01  0.2602E+02
     20.012  0.1084E+01  0.2615E+02
     20.140  0.1018E+01  0.2628E+02
     20.267  0.1017E+01  0.2641E+02
     20.394  0.9978E+00  0.2654E+02
     20.521  0.9878E+00  0.2666E+02
     20.648  0.8869E+00  0.2678E+02
     20.775  0.7219E+00  0.2687E+02
     20.902  0.7529E+00  0.2696E+02
     21.030  0.1032E+01  0.2710E+02
     21.157  0.1115E+01  0.2724E+02
     21.284  0.1034E+01  0.2737E+02
     21.411  0.1021E+01  0.2750E+02
     21.538  0.1035E+01  0.2763E+02
     21.665  0.8848E+00  0.2774E+02
     21.792  0.7752E+00  0.2784E+02
     21.920  0.8717E+00  0.2795E+02
     22.047  0.1558E+01  0.2815E+02
     22.174  0.1734E+01  0.2837E+02
     22.301  0.1208E+01  0.2852E+02
     22.428  0.1238E+01  0.2868E+02
     22.555  0.1189E+01  0.2883E+02
     22.682  0.1273E+01  0.2899E+02
     22.810  0.1699E+01  0.2921E+02
     22.937  0.1605E+01  0.2941E+02
     23.064  0.1267E+01  0.2958E+02
     23.191  0.1161E+01  0.2972E+02
     23.318  0.1134E+01  0.2987E+02
     23.445  0.1183E+01  0.3002E+02
     23.572  0.1292E+01  0.3018E+02
     23.699  0.1216E+01  0.3034E+02
     23.827  0.1179E+01  0.3049E+02
     23.954  0.1278E+01  0.3065E+02
     24.081  0.1407E+01  0.3083E+02
     24.208  0.1293E+01  0.3099E+02
     24.335  0.1220E+01  0.3115E+02
     24.462  0.1063E+01  0.3128E+02
     24.589  0.5161E+00  0.3135E+02
     24.717  0.4400E+00  0.3140E+02
     24.844  0.5371E+00  0.3147E+02
     24.971  0.4443E+00  0.3153E+02
     25.098  0.2114E+00  0.3156E+02
     25.225  0.2032E+00  0.3158E+02
     25.352  0.2741E+00  0.3162E+02
     25.479  0.3646E+00  0.3166E+02
     25.607  0.2030E+00  0.3169E+02
     25.734  0.1213E+00  0.3170E+02
     25.861  0.1135E+00  0.3172E+02
     25.988  0.1144E+00  0.3173E+02
     26.115  0.1138E+00  0.3175E+02
     26.242  0.1072E+00  0.3176E+02
     26.369  0.9133E-01  0.3177E+02
     26.497  0.7232E-01  0.3178E+02
     26.624  0.6666E-01  0.3179E+02
     26.751  0.6883E-01  0.3180E+02
     26.878  0.6823E-01  0.3181E+02
     27.005  0.6875E-01  0.3182E+02
     27.132  0.7101E-01  0.3183E+02
     27.259  0.7152E-01  0.3183E+02
     27.387  0.7242E-01  0.3184E+02
     27.514  0.7493E-01  0.3185E+02
     27.641  0.7698E-01  0.3186E+02
     27.768  0.7970E-01  0.3187E+02
     27.895  0.8871E-01  0.3188E+02
     28.022  0.9615E-01  0.3190E+02
     28.149  0.1037E+00  0.3191E+02
     28.277  0.1134E+00  0.3192E+02
     28.404  0.1437E+00  0.3194E+02
     28.531  0.2243E+00  0.3197E+02
     28.658  0.1972E+00  0.3200E+02
     28.785  0.2668E-01  0.3200E+02
     28.912  0.2801E-03  0.3200E+02
     29.039  0.1599E-06  0.3200E+02
     29.166  0.4233E-11  0.3200E+02
     29.294  0.0000E+00  0.3200E+02
     29.421  0.0000E+00  0.3200E+02
     29.548  0.0000E+00  0.3200E+02
     29.675  0.0000E+00  0.3200E+02
     29.802  0.0000E+00  0.3200E+02
     29.929  0.0000E+00  0.3200E+02
     30.056  0.0000E+00  0.3200E+02
     30.184  0.0000E+00  0.3200E+02
     30.311  0.0000E+00  0.3200E+02
