       N       E                     dE             d eps       ncg     rms          rms(c)
DAV:   1    -0.829279013859E+01   -0.82928E+01   -0.16072E+03  4304   0.149E+02
DAV:   2    -0.105689682089E+02   -0.22762E+01   -0.22718E+01  5776   0.170E+01
DAV:   3    -0.105749072807E+02   -0.59391E-02   -0.59391E-02  4480   0.948E-01
DAV:   4    -0.105749135642E+02   -0.62836E-05   -0.62836E-05  6784   0.285E-02
DAV:   5    -0.105749135643E+02   -0.10948E-09   -0.10884E-09  4432   0.981E-05    0.251E+00
DAV:   6    -0.105166865707E+02    0.58227E-01   -0.29687E-02  5056   0.443E-01    0.153E+00
DAV:   7    -0.104846277288E+02    0.32059E-01   -0.69028E-02  5616   0.744E-01    0.107E-01
DAV:   8    -0.104859919900E+02   -0.13643E-02   -0.22648E-03  4784   0.155E-01    0.266E-02
DAV:   9    -0.104861522789E+02   -0.16029E-03   -0.18380E-04  6144   0.482E-02    0.116E-02
DAV:  10    -0.104861648152E+02   -0.12536E-04   -0.19788E-05  5040   0.158E-02    0.230E-03
DAV:  11    -0.104861637761E+02    0.10391E-05   -0.10351E-06  6160   0.277E-03    0.431E-04
DAV:  12    -0.104861636523E+02    0.12381E-06   -0.38935E-08  2880   0.869E-04
   1 F= -.10486164E+02 E0= -.10486164E+02  d E =-.299120E-10
