       N       E                     dE             d eps       ncg     rms          rms(c)
DAV:   1    -0.638757289197E+01   -0.63876E+01   -0.20252E+03  4096   0.208E+02
DAV:   2    -0.105938170507E+02   -0.42062E+01   -0.41947E+01  5648   0.230E+01
DAV:   3    -0.106162194762E+02   -0.22402E-01   -0.22402E-01  4352   0.191E+00
DAV:   4    -0.106162664636E+02   -0.46987E-04   -0.46988E-04  7024   0.896E-02
DAV:   5    -0.106162664657E+02   -0.20659E-08   -0.20657E-08  4384   0.461E-04    0.253E+00
DAV:   6    -0.105589434384E+02    0.57323E-01   -0.31386E-02  5232   0.470E-01    0.154E+00
DAV:   7    -0.105273830530E+02    0.31560E-01   -0.71944E-02  5776   0.771E-01    0.111E-01
DAV:   8    -0.105287161117E+02   -0.13331E-02   -0.22898E-03  4736   0.159E-01    0.275E-02
DAV:   9    -0.105288770370E+02   -0.16093E-03   -0.18440E-04  6352   0.485E-02    0.120E-02
DAV:  10    -0.105288898298E+02   -0.12793E-04   -0.20510E-05  4960   0.166E-02    0.247E-03
DAV:  11    -0.105288888181E+02    0.10117E-05   -0.12257E-06  6528   0.314E-03    0.437E-04
DAV:  12    -0.105288887413E+02    0.76869E-07   -0.48851E-08  3344   0.102E-03
   1 F= -.10528889E+02 E0= -.10528889E+02  d E =-.421283E-11
