       N       E                     dE             d eps       ncg     rms          rms(c)
DAV:   1    -0.544641012036E+01   -0.54464E+01   -0.22335E+03  3936   0.235E+02
DAV:   2    -0.105939919044E+02   -0.51476E+01   -0.51226E+01  5712   0.257E+01
DAV:   3    -0.106237742547E+02   -0.29782E-01   -0.29782E-01  4256   0.230E+00
DAV:   4    -0.106238490305E+02   -0.74776E-04   -0.74776E-04  7168   0.121E-01
DAV:   5    -0.106238490337E+02   -0.32307E-08   -0.32291E-08  4240   0.619E-04    0.254E+00
DAV:   6    -0.105662525003E+02    0.57597E-01   -0.31650E-02  5360   0.471E-01    0.154E+00
DAV:   7    -0.105346346706E+02    0.31618E-01   -0.72452E-02  5840   0.772E-01    0.111E-01
DAV:   8    -0.105359759791E+02   -0.13413E-02   -0.23163E-03  4608   0.161E-01    0.274E-02
DAV:   9    -0.105361363273E+02   -0.16035E-03   -0.18271E-04  6464   0.486E-02    0.121E-02
DAV:  10    -0.105361496446E+02   -0.13317E-04   -0.21315E-05  4816   0.171E-02    0.251E-03
DAV:  11    -0.105361486083E+02    0.10363E-05   -0.12689E-06  6672   0.323E-03    0.438E-04
DAV:  12    -0.105361485268E+02    0.81498E-07   -0.47896E-08  3424   0.102E-03
   1 F= -.10536149E+02 E0= -.10536149E+02  d E =-.153517E-10
