       N       E                     dE             d eps       ncg     rms          rms(c)
DAV:   1    -0.801937526512E+01   -0.80194E+01   -0.16997E+03  4256   0.158E+02
DAV:   2    -0.105742944125E+02   -0.25549E+01   -0.25464E+01  5872   0.178E+01
DAV:   3    -0.105822847431E+02   -0.79903E-02   -0.79903E-02  4480   0.108E+00
DAV:   4    -0.105822939941E+02   -0.92509E-05   -0.92509E-05  6864   0.350E-02
DAV:   5    -0.105822939942E+02   -0.14188E-09   -0.13722E-09  4384   0.114E-04    0.252E+00
DAV:   6    -0.105243479506E+02    0.57946E-01   -0.30096E-02  5040   0.450E-01    0.153E+00
DAV:   7    -0.104926563354E+02    0.31692E-01   -0.69763E-02  5632   0.755E-01    0.108E-01
DAV:   8    -0.104940092704E+02   -0.13529E-02   -0.22531E-03  4736   0.155E-01    0.266E-02
DAV:   9    -0.104941664740E+02   -0.15720E-03   -0.17849E-04  6272   0.476E-02    0.116E-02
DAV:  10    -0.104941789685E+02   -0.12494E-04   -0.19651E-05  5024   0.158E-02    0.229E-03
DAV:  11    -0.104941779559E+02    0.10126E-05   -0.10338E-06  6320   0.279E-03    0.433E-04
DAV:  12    -0.104941778258E+02    0.13005E-06   -0.39997E-08  3024   0.889E-04
   1 F= -.10494178E+02 E0= -.10494178E+02  d E =-.274303E-10
