       N       E                     dE             d eps       ncg     rms          rms(c)
DAV:   1    -0.568951080690E+01   -0.56895E+01   -0.21460E+03  3984   0.222E+02
DAV:   2    -0.105944309948E+02   -0.49049E+01   -0.48670E+01  5680   0.248E+01
DAV:   3    -0.106212343034E+02   -0.26803E-01   -0.26803E-01  4256   0.217E+00
DAV:   4    -0.106212968969E+02   -0.62593E-04   -0.62593E-04  7216   0.110E-01
DAV:   5    -0.106212968999E+02   -0.29913E-08   -0.29909E-08  4208   0.573E-04    0.254E+00
DAV:   6    -0.105638288138E+02    0.57468E-01   -0.31553E-02  5392   0.471E-01    0.154E+00
DAV:   7    -0.105322277163E+02    0.31601E-01   -0.72246E-02  5888   0.771E-01    0.111E-01
DAV:   8    -0.105335644774E+02   -0.13368E-02   -0.22932E-03  4656   0.160E-01    0.274E-02
DAV:   9    -0.105337256203E+02   -0.16114E-03   -0.18428E-04  6560   0.486E-02    0.121E-02
DAV:  10    -0.105337387625E+02   -0.13142E-04   -0.21168E-05  4688   0.170E-02    0.252E-03
DAV:  11    -0.105337377078E+02    0.10547E-05   -0.12622E-06  6752   0.320E-03    0.438E-04
DAV:  12    -0.105337376284E+02    0.79398E-07   -0.48349E-08  3312   0.102E-03
   1 F= -.10533738E+02 E0= -.10533738E+02  d E =-.126824E-11
