       N       E                     dE             d eps       ncg     rms          rms(c)
DAV:   1    -0.743953638617E+01   -0.74395E+01   -0.17691E+03  4128   0.171E+02
DAV:   2    -0.105826603018E+02   -0.31431E+01   -0.31420E+01  5712   0.198E+01
DAV:   3    -0.105949438758E+02   -0.12284E-01   -0.12284E-01  4464   0.137E+00
DAV:   4    -0.105949626326E+02   -0.18757E-04   -0.18757E-04  6928   0.528E-02
DAV:   5    -0.105949626330E+02   -0.38500E-09   -0.34092E-09  4416   0.193E-04    0.252E+00
DAV:   6    -0.105374805534E+02    0.57482E-01   -0.30654E-02  5216   0.461E-01    0.153E+00
DAV:   7    -0.105062392214E+02    0.31241E-01   -0.70690E-02  5760   0.768E-01    0.109E-01
DAV:   8    -0.105075744150E+02   -0.13352E-02   -0.22213E-03  4848   0.154E-01    0.267E-02
DAV:   9    -0.105077294400E+02   -0.15503E-03   -0.17468E-04  6352   0.471E-02    0.116E-02
DAV:  10    -0.105077419626E+02   -0.12523E-04   -0.19749E-05  4976   0.159E-02    0.228E-03
DAV:  11    -0.105077409982E+02    0.96441E-06   -0.10409E-06  6400   0.285E-03
   1 F= -.10507741E+02 E0= -.10507741E+02  d E =-.511645E-11
