       N       E                     dE             d eps       ncg     rms          rms(c)
DAV:   1    -0.942252296718E+01   -0.94225E+01   -0.12773E+03  4880   0.108E+02
DAV:   2    -0.105439117126E+02   -0.11214E+01   -0.11214E+01  5280   0.119E+01
DAV:   3    -0.105453206219E+02   -0.14089E-02   -0.14089E-02  5392   0.421E-01
DAV:   4    -0.105453211637E+02   -0.54185E-06   -0.54183E-06  5808   0.621E-03
DAV:   5    -0.105453211637E+02   -0.11823E-10   -0.34679E-11  5216   0.147E-05    0.247E+00
DAV:   6    -0.104919796142E+02    0.53342E-01   -0.24316E-02  4784   0.383E-01    0.151E+00
DAV:   7    -0.104597809966E+02    0.32199E-01   -0.59891E-02  5360   0.656E-01    0.998E-02
DAV:   8    -0.104609868426E+02   -0.12058E-02   -0.17826E-03  4608   0.130E-01    0.275E-02
DAV:   9    -0.104611455887E+02   -0.15875E-03   -0.18575E-04  5648   0.468E-02    0.121E-02
DAV:  10    -0.104611553216E+02   -0.97328E-05   -0.20065E-05  4848   0.154E-02    0.183E-03
DAV:  11    -0.104611542293E+02    0.10922E-05   -0.52077E-07  5744   0.185E-03    0.351E-04
DAV:  12    -0.104611541458E+02    0.83526E-07   -0.31097E-08  2656   0.704E-04
   1 F= -.10461154E+02 E0= -.10461154E+02  d E =-.446041E-12
