       N       E                     dE             d eps       ncg     rms          rms(c)
DAV:   1    -0.889502193507E+01   -0.88950E+01   -0.14716E+03  4688   0.133E+02
DAV:   2    -0.105559191034E+02   -0.16609E+01   -0.16609E+01  5600   0.146E+01
DAV:   3    -0.105592819444E+02   -0.33628E-02   -0.33628E-02  4912   0.677E-01
DAV:   4    -0.105592839746E+02   -0.20302E-05   -0.20302E-05  6288   0.143E-02
DAV:   5    -0.105592839746E+02   -0.44224E-10   -0.44214E-10  4736   0.535E-05    0.250E+00
DAV:   6    -0.105007212722E+02    0.58563E-01   -0.28180E-02  5136   0.429E-01    0.152E+00
DAV:   7    -0.104681839097E+02    0.32537E-01   -0.67795E-02  5520   0.721E-01    0.105E-01
DAV:   8    -0.104695380239E+02   -0.13541E-02   -0.22488E-03  4736   0.152E-01    0.274E-02
DAV:   9    -0.104696924453E+02   -0.15442E-03   -0.18276E-04  6112   0.482E-02    0.118E-02
DAV:  10    -0.104697053788E+02   -0.12933E-04   -0.21457E-05  5024   0.164E-02    0.237E-03
DAV:  11    -0.104697040086E+02    0.13701E-05   -0.96793E-07  6080   0.255E-03    0.409E-04
DAV:  12    -0.104697038402E+02    0.16843E-06   -0.38734E-08  2688   0.851E-04
   1 F= -.10469704E+02 E0= -.10469704E+02  d E =-.140512E-10
