       N       E                     dE             d eps       ncg     rms          rms(c)
DAV:   1    -0.843746691373E+01   -0.84375E+01   -0.15371E+03  4432   0.141E+02
DAV:   2    -0.105607448493E+02   -0.21233E+01   -0.21230E+01  5776   0.162E+01
DAV:   3    -0.105660980493E+02   -0.53532E-02   -0.53532E-02  4496   0.850E-01
DAV:   4    -0.105661029063E+02   -0.48570E-05   -0.48570E-05  6768   0.243E-02
DAV:   5    -0.105661029064E+02   -0.70372E-10   -0.59819E-10  4416   0.693E-05    0.251E+00
DAV:   6    -0.105077205191E+02    0.58382E-01   -0.29079E-02  4896   0.433E-01    0.153E+00
DAV:   7    -0.104751950730E+02    0.32525E-01   -0.67965E-02  5616   0.728E-01    0.106E-01
DAV:   8    -0.104765611460E+02   -0.13661E-02   -0.22720E-03  4736   0.155E-01    0.267E-02
DAV:   9    -0.104767241428E+02   -0.16300E-03   -0.18898E-04  6064   0.487E-02    0.116E-02
DAV:  10    -0.104767366983E+02   -0.12555E-04   -0.20132E-05  4960   0.159E-02    0.232E-03
DAV:  11    -0.104767356254E+02    0.10729E-05   -0.10340E-06  6256   0.273E-03    0.429E-04
DAV:  12    -0.104767355081E+02    0.11726E-06   -0.38070E-08  2816   0.851E-04
   1 F= -.10476736E+02 E0= -.10476736E+02  d E =-.506773E-11
