       N       E                     dE             d eps       ncg     rms          rms(c)
DAV:   1    -0.667693875604E+01   -0.66769E+01   -0.19877E+03  4000   0.196E+02
DAV:   2    -0.105896196508E+02   -0.39127E+01   -0.38887E+01  5664   0.222E+01
DAV:   3    -0.106079582838E+02   -0.18339E-01   -0.18339E-01  4432   0.173E+00
DAV:   4    -0.106079891733E+02   -0.30889E-04   -0.30890E-04  6896   0.720E-02
DAV:   5    -0.106079891742E+02   -0.94548E-09   -0.94542E-09  4400   0.347E-04    0.253E+00
DAV:   6    -0.105505117469E+02    0.57477E-01   -0.31163E-02  5200   0.467E-01    0.154E+00
DAV:   7    -0.105192855616E+02    0.31226E-01   -0.71567E-02  5808   0.773E-01    0.110E-01
DAV:   8    -0.105206193718E+02   -0.13338E-02   -0.22655E-03  4752   0.157E-01    0.269E-02
DAV:   9    -0.105207750201E+02   -0.15565E-03   -0.17534E-04  6288   0.472E-02    0.118E-02
DAV:  10    -0.105207880832E+02   -0.13063E-04   -0.20565E-05  4784   0.165E-02    0.236E-03
DAV:  11    -0.105207871093E+02    0.97396E-06   -0.11270E-06  6656   0.301E-03
   1 F= -.10520787E+02 E0= -.10520787E+02  d E =-.162219E-11
