       N       E                     dE             d eps       ncg     rms          rms(c)
DAV:   1    -0.311178796667E+01   -0.31118E+01   -0.26668E+03  3856   0.314E+02
DAV:   2    -0.105822418042E+02   -0.74705E+01   -0.74055E+01  5792   0.309E+01
DAV:   3    -0.106312501397E+02   -0.49008E-01   -0.49008E-01  4304   0.318E+00
DAV:   4    -0.106314182066E+02   -0.16807E-03   -0.16807E-03  7184   0.202E-01
DAV:   5    -0.106314182133E+02   -0.66663E-08   -0.66630E-08  4272   0.120E-03    0.254E+00
DAV:   6    -0.105736574122E+02    0.57761E-01   -0.31797E-02  5392   0.472E-01    0.155E+00
DAV:   7    -0.105419884468E+02    0.31669E-01   -0.72855E-02  5904   0.776E-01    0.111E-01
DAV:   8    -0.105433364458E+02   -0.13480E-02   -0.23676E-03  4752   0.168E-01    0.275E-02
DAV:   9    -0.105434957685E+02   -0.15932E-03   -0.18180E-04  6496   0.496E-02    0.121E-02
DAV:  10    -0.105435091534E+02   -0.13385E-04   -0.20740E-05  4880   0.173E-02    0.254E-03
DAV:  11    -0.105435081373E+02    0.10161E-05   -0.13537E-06  6736   0.345E-03    0.443E-04
DAV:  12    -0.105435080683E+02    0.69013E-07   -0.47346E-08  3408   0.105E-03
   1 F= -.10543508E+02 E0= -.10543508E+02  d E =-.395926E-11
