       N       E                     dE             d eps       ncg     rms          rms(c)
DAV:   1    -0.728754041703E+01   -0.72875E+01   -0.18674E+03  4176   0.179E+02
DAV:   2    -0.105857805280E+02   -0.32982E+01   -0.32910E+01  5824   0.204E+01
DAV:   3    -0.105992393447E+02   -0.13459E-01   -0.13459E-01  4192   0.144E+00
DAV:   4    -0.105992620166E+02   -0.22672E-04   -0.22672E-04  7136   0.591E-02
DAV:   5    -0.105992620173E+02   -0.69207E-09   -0.48406E-09  4160   0.236E-04    0.252E+00
DAV:   6    -0.105418277147E+02    0.57434E-01   -0.30851E-02  5056   0.464E-01    0.154E+00
DAV:   7    -0.105106295256E+02    0.31198E-01   -0.71041E-02  5792   0.771E-01    0.110E-01
DAV:   8    -0.105119640761E+02   -0.13346E-02   -0.22366E-03  4848   0.155E-01    0.266E-02
DAV:   9    -0.105121180584E+02   -0.15398E-03   -0.17272E-04  6320   0.468E-02    0.117E-02
DAV:  10    -0.105121308379E+02   -0.12779E-04   -0.20131E-05  4864   0.162E-02    0.229E-03
DAV:  11    -0.105121298814E+02    0.95655E-06   -0.10565E-06  6464   0.289E-03
   1 F= -.10512130E+02 E0= -.10512130E+02  d E =-.122869E-11
