       N       E                     dE             d eps       ncg     rms          rms(c)
DAV:   1    -0.773903881837E+01   -0.77390E+01   -0.17250E+03  4208   0.164E+02
DAV:   2    -0.105795835598E+02   -0.28405E+01   -0.28333E+01  5872   0.189E+01
DAV:   3    -0.105891034879E+02   -0.95199E-02   -0.95199E-02  4224   0.118E+00
DAV:   4    -0.105891172101E+02   -0.13722E-04   -0.13722E-04  7072   0.434E-02
DAV:   5    -0.105891172104E+02   -0.33066E-09   -0.28626E-09  4144   0.163E-04    0.252E+00
DAV:   6    -0.105314539668E+02    0.57663E-01   -0.30406E-02  5168   0.456E-01    0.153E+00
DAV:   7    -0.105000507881E+02    0.31403E-01   -0.70301E-02  5712   0.763E-01    0.109E-01
DAV:   8    -0.105013930121E+02   -0.13422E-02   -0.22299E-03  4816   0.154E-01    0.265E-02
DAV:   9    -0.105015473954E+02   -0.15438E-03   -0.17358E-04  6256   0.470E-02    0.116E-02
DAV:  10    -0.105015599487E+02   -0.12553E-04   -0.19793E-05  4960   0.159E-02    0.226E-03
DAV:  11    -0.105015589651E+02    0.98363E-06   -0.10158E-06  6368   0.280E-03
   1 F= -.10501559E+02 E0= -.10501559E+02  d E =-.405905E-11
