       N       E                     dE             d eps       ncg     rms          rms(c)
DAV:   1    -0.234408749648E+01   -0.23441E+01   -0.28809E+03  3856   0.347E+02
DAV:   2    -0.105735638273E+02   -0.82295E+01   -0.81187E+01  5648   0.326E+01
DAV:   3    -0.106313739729E+02   -0.57810E-01   -0.57810E-01  4176   0.347E+00
DAV:   4    -0.106315785973E+02   -0.20462E-03   -0.20462E-03  7408   0.231E-01
DAV:   5    -0.106315786080E+02   -0.10770E-07   -0.10755E-07  4112   0.143E-03    0.254E+00
DAV:   6    -0.105738181329E+02    0.57760E-01   -0.31840E-02  5424   0.473E-01    0.155E+00
DAV:   7    -0.105421219421E+02    0.31696E-01   -0.72893E-02  5856   0.778E-01    0.111E-01
DAV:   8    -0.105434684551E+02   -0.13465E-02   -0.23752E-03  4688   0.170E-01    0.278E-02
DAV:   9    -0.105436308020E+02   -0.16235E-03   -0.18747E-04  6656   0.506E-02    0.122E-02
DAV:  10    -0.105436438491E+02   -0.13047E-04   -0.20239E-05  4816   0.172E-02    0.258E-03
DAV:  11    -0.105436428683E+02    0.98081E-06   -0.14194E-06  6832   0.356E-03
   1 F= -.10543643E+02 E0= -.10543643E+02  d E =-.357288E-11
