 vasp.5.4.1 24Jun15 (build May 02 2016 14:41:14) complex                        
  
 executed on           IFC91_ompi date 2022.05.07  11:10:18
 running on   16 total cores
 distrk:  each k-point on   16 cores,    1 groups
 distr:  one band on NCORES_PER_BAND=   1 cores,   16 groups


--------------------------------------------------------------------------------------------------------


 INCAR:
 POTCAR:   PAW_PBE Si 05Jan2001                   

 ----------------------------------------------------------------------------- 
|                                                                             |
|           W    W    AA    RRRRR   N    N  II  N    N   GGGG   !!!           |
|           W    W   A  A   R    R  NN   N  II  NN   N  G    G  !!!           |
|           W    W  A    A  R    R  N N  N  II  N N  N  G       !!!           |
|           W WW W  AAAAAA  RRRRR   N  N N  II  N  N N  G  GGG   !            |
|           WW  WW  A    A  R   R   N   NN  II  N   NN  G    G                |
|           W    W  A    A  R    R  N    N  II  N    N   GGGG   !!!           |
|                                                                             |
|      For optimal performance we recommend to set                            |
|        NCORE= 4 - approx SQRT( number of cores)                             |
|      NCORE specifies how many cores store one orbital (NPAR=cpu/NCORE).     |
|      This setting can  greatly improve the performance of VASP for DFT.     |
|      The default, NPAR=number of cores might be grossly inefficient         |
|      on modern multi-core architectures or massively parallel machines.     |
|      Do your own testing !!!!                                               |
|      Unfortunately you need to use the default for GW and RPA calculations. |
|      (for HF NCORE is supported but not extensively tested yet)             |
|                                                                             |
 ----------------------------------------------------------------------------- 

 POTCAR:   PAW_PBE Si 05Jan2001                   
   VRHFIN =Si: s2p2                                                             
   LEXCH  = PE                                                                  
   EATOM  =   103.0669 eV,    7.5752 Ry                                         
                                                                                
   TITEL  = PAW_PBE Si 05Jan2001                                                
   LULTRA =        F    use ultrasoft PP ?                                      
   IUNSCR =        1    unscreen: 0-lin 1-nonlin 2-no                           
   RPACOR =    1.500    partial core radius                                     
   POMASS =   28.085; ZVAL   =    4.000    mass and valenz                      
   RCORE  =    1.900    outmost cutoff radius                                   
   RWIGS  =    2.480; RWIGS  =    1.312    wigner-seitz radius (au A)           
   ENMAX  =  245.345; ENMIN  =  184.009 eV                                      
   ICORE  =        2    local potential                                         
   LCOR   =        T    correct aug charges                                     
   LPAW   =        T    paw PP                                                  
   EAUG   =  322.069                                                            
   DEXC   =    -.007                                                            
   RMAX   =    2.944    core radius for proj-oper                               
   RAUG   =    1.300    factor for augmentation sphere                          
   RDEP   =    1.993    radius for radial grids                                 
   QCUT   =   -4.246; QGAM   =    8.493    optimization parameters              
                                                                                
   Description                                                                  
     l     E      TYP  RCUT    TYP  RCUT                                        
     0   .000     23  1.900                                                     
     0   .000     23  1.900                                                     
     1   .000     23  1.900                                                     
     1   .000     23  1.900                                                     
     2   .000      7  1.900                                                     
  local pseudopotential read in
  partial core-charges read in
  atomic valenz-charges read in
  non local Contribution for L=           0  read in
    real space projection operators read in
  non local Contribution for L=           0  read in
    real space projection operators read in
  non local Contribution for L=           1  read in
    real space projection operators read in
  non local Contribution for L=           1  read in
    real space projection operators read in
    PAW grid and wavefunctions read in
 
   number of l-projection  operators is LMAX  =           4
   number of lm-projection operators is LMMAX =           8
 
 PAW_PBE Si 05Jan2001                   :
 energy of atom  1       EATOM= -103.0669
 kinetic energy error for atom=    0.0013 (will be added to EATOM!!)
 
 
 POSCAR: Real silicon structure                  
  positions in direct lattice
  No initial velocities read in
 exchange correlation table for  LEXCH =        8
   RHO(1)=    0.500       N(1)  =     2000
   RHO(2)=  100.500       N(2)  =     4000
 


--------------------------------------------------------------------------------------------------------


 ion  position               nearest neighbor table
   1  0.875  0.875  0.875-   2 2.51   2 2.51   2 2.51   2 2.51
   2  0.125  0.125  0.125-   1 2.51   1 2.51   1 2.51   1 2.51
 
  LATTYP: Found a face centered cubic cell.
 ALAT       =     5.8000000000
  
  Lattice vectors:
  
 A1 = (   0.0000000000,   2.9000000000,   2.9000000000)
 A2 = (   2.9000000000,   0.0000000000,   2.9000000000)
 A3 = (   2.9000000000,   2.9000000000,   0.0000000000)


Analysis of symmetry for initial positions (statically):
=====================================================================
 Subroutine PRICEL returns:
 Original cell was already a primitive cell.
 

 Routine SETGRP: Setting up the symmetry group for a 
 face centered cubic supercell.


 Subroutine GETGRP returns: Found 48 space group operations
 (whereof 12 operations were pure point group operations)
 out of a pool of 48 trial point group operations.


The static configuration has the point symmetry D_3d.
 The point group associated with its full space group is O_h .


Analysis of symmetry for dynamics (positions and initial velocities):
=====================================================================
 Subroutine PRICEL returns:
 Original cell was already a primitive cell.
 

 Routine SETGRP: Setting up the symmetry group for a 
 face centered cubic supercell.


 Subroutine GETGRP returns: Found 48 space group operations
 (whereof 12 operations were pure point group operations)
 out of a pool of 48 trial point group operations.


The dynamic configuration has the point symmetry D_3d.
 The point group associated with its full space group is O_h .
 
 
 KPOINTS: k-points                                

Automatic generation of k-mesh.
Space group operators:
 irot       det(A)        alpha          n_x          n_y          n_z        tau_x        tau_y        tau_z
    1     1.000000     0.000000     1.000000     0.000000     0.000000     0.000000     0.000000     0.000000
    2    -1.000000     0.000000     1.000000     0.000000     0.000000     0.000000     0.000000     0.000000
    3     1.000000   120.000000    -0.577350    -0.577350    -0.577350     0.000000     0.000000     0.000000
    4    -1.000000   120.000000    -0.577350    -0.577350    -0.577350     0.000000     0.000000     0.000000
    5     1.000000   120.000000     0.577350     0.577350     0.577350     0.000000     0.000000     0.000000
    6    -1.000000   120.000000     0.577350     0.577350     0.577350     0.000000     0.000000     0.000000
    7     1.000000   180.000000     0.000000    -0.707107     0.707107     0.000000     0.000000     0.000000
    8    -1.000000   180.000000     0.000000    -0.707107     0.707107     0.000000     0.000000     0.000000
    9     1.000000   180.000000     0.707107    -0.707107     0.000000     0.000000     0.000000     0.000000
   10    -1.000000   180.000000     0.707107    -0.707107     0.000000     0.000000     0.000000     0.000000
   11     1.000000   180.000000     0.707107     0.000000    -0.707107     0.000000     0.000000     0.000000
   12    -1.000000   180.000000     0.707107     0.000000    -0.707107     0.000000     0.000000     0.000000
   13     1.000000    90.000000     0.000000     0.000000    -1.000000     0.500000     0.000000     0.000000
   14    -1.000000    90.000000     0.000000     0.000000    -1.000000     0.500000     0.000000     0.000000
   15     1.000000   180.000000     0.000000     0.707107     0.707107     0.500000     0.000000     0.000000
   16    -1.000000   180.000000     0.000000     0.707107     0.707107     0.500000     0.000000     0.000000
   17     1.000000    90.000000     0.000000     1.000000     0.000000     0.500000     0.000000     0.000000
   18    -1.000000    90.000000     0.000000     1.000000     0.000000     0.500000     0.000000     0.000000
   19     1.000000   180.000000     0.000000     0.000000     1.000000     0.000000     0.000000     0.500000
   20    -1.000000   180.000000     0.000000     0.000000     1.000000     0.000000     0.000000     0.500000
   21     1.000000   120.000000    -0.577350     0.577350     0.577350     0.000000     0.000000     0.500000
   22    -1.000000   120.000000    -0.577350     0.577350     0.577350     0.000000     0.000000     0.500000
   23     1.000000   120.000000    -0.577350     0.577350    -0.577350     0.000000     0.000000     0.500000
   24    -1.000000   120.000000    -0.577350     0.577350    -0.577350     0.000000     0.000000     0.500000
   25     1.000000    90.000000     0.000000     0.000000     1.000000     0.000000     0.500000     0.000000
   26    -1.000000    90.000000     0.000000     0.000000     1.000000     0.000000     0.500000     0.000000
   27     1.000000    90.000000    -1.000000     0.000000     0.000000     0.000000     0.500000     0.000000
   28    -1.000000    90.000000    -1.000000     0.000000     0.000000     0.000000     0.500000     0.000000
   29     1.000000   180.000000     0.707107     0.000000     0.707107     0.000000     0.500000     0.000000
   30    -1.000000   180.000000     0.707107     0.000000     0.707107     0.000000     0.500000     0.000000
   31     1.000000   120.000000     0.577350    -0.577350     0.577350     0.500000     0.000000     0.000000
   32    -1.000000   120.000000     0.577350    -0.577350     0.577350     0.500000     0.000000     0.000000
   33     1.000000   120.000000    -0.577350    -0.577350     0.577350     0.500000     0.000000     0.000000
   34    -1.000000   120.000000    -0.577350    -0.577350     0.577350     0.500000     0.000000     0.000000
   35     1.000000   180.000000     1.000000     0.000000     0.000000     0.500000     0.000000     0.000000
   36    -1.000000   180.000000     1.000000     0.000000     0.000000     0.500000     0.000000     0.000000
   37     1.000000    90.000000     0.000000    -1.000000     0.000000     0.000000     0.000000     0.500000
   38    -1.000000    90.000000     0.000000    -1.000000     0.000000     0.000000     0.000000     0.500000
   39     1.000000   180.000000     0.707107     0.707107     0.000000     0.000000     0.000000     0.500000
   40    -1.000000   180.000000     0.707107     0.707107     0.000000     0.000000     0.000000     0.500000
   41     1.000000    90.000000     1.000000     0.000000     0.000000     0.000000     0.000000     0.500000
   42    -1.000000    90.000000     1.000000     0.000000     0.000000     0.000000     0.000000     0.500000
   43     1.000000   120.000000     0.577350    -0.577350    -0.577350     0.000000     0.500000     0.000000
   44    -1.000000   120.000000     0.577350    -0.577350    -0.577350     0.000000     0.500000     0.000000
   45     1.000000   180.000000     0.000000     1.000000     0.000000     0.000000     0.500000     0.000000
   46    -1.000000   180.000000     0.000000     1.000000     0.000000     0.000000     0.500000     0.000000
   47     1.000000   120.000000     0.577350     0.577350    -0.577350     0.000000     0.500000     0.000000
   48    -1.000000   120.000000     0.577350     0.577350    -0.577350     0.000000     0.500000     0.000000
 
 Subroutine IBZKPT returns following result:
 ===========================================
 
 Found    120 irreducible k-points:
 
 Following reciprocal coordinates:
            Coordinates               Weight
  0.000000  0.000000  0.000000      1.000000
  0.066667  0.000000  0.000000      8.000000
  0.133333  0.000000  0.000000      8.000000
  0.200000  0.000000  0.000000      8.000000
  0.266667  0.000000  0.000000      8.000000
  0.333333  0.000000  0.000000      8.000000
  0.400000  0.000000  0.000000      8.000000
  0.466667  0.000000  0.000000      8.000000
  0.066667  0.066667  0.000000      6.000000
  0.133333  0.066667  0.000000     24.000000
  0.200000  0.066667  0.000000     24.000000
  0.266667  0.066667  0.000000     24.000000
  0.333333  0.066667  0.000000     24.000000
  0.400000  0.066667  0.000000     24.000000
  0.466667  0.066667  0.000000     24.000000
 -0.466667  0.066667  0.000000     24.000000
 -0.400000  0.066667  0.000000     24.000000
 -0.333333  0.066667  0.000000     24.000000
 -0.266667  0.066667  0.000000     24.000000
 -0.200000  0.066667  0.000000     24.000000
 -0.133333  0.066667  0.000000     24.000000
 -0.066667  0.066667  0.000000     12.000000
  0.133333  0.133333  0.000000      6.000000
  0.200000  0.133333  0.000000     24.000000
  0.266667  0.133333  0.000000     24.000000
  0.333333  0.133333  0.000000     24.000000
  0.400000  0.133333  0.000000     24.000000
  0.466667  0.133333  0.000000     24.000000
 -0.466667  0.133333  0.000000     24.000000
 -0.400000  0.133333  0.000000     24.000000
 -0.333333  0.133333  0.000000     24.000000
 -0.266667  0.133333  0.000000     24.000000
 -0.200000  0.133333  0.000000     24.000000
 -0.133333  0.133333  0.000000     12.000000
  0.200000  0.200000  0.000000      6.000000
  0.266667  0.200000  0.000000     24.000000
  0.333333  0.200000  0.000000     24.000000
  0.400000  0.200000  0.000000     24.000000
  0.466667  0.200000  0.000000     24.000000
 -0.466667  0.200000  0.000000     24.000000
 -0.400000  0.200000  0.000000     24.000000
 -0.333333  0.200000  0.000000     24.000000
 -0.266667  0.200000  0.000000     24.000000
 -0.200000  0.200000  0.000000     12.000000
  0.266667  0.266667  0.000000      6.000000
  0.333333  0.266667  0.000000     24.000000
  0.400000  0.266667  0.000000     24.000000
  0.466667  0.266667  0.000000     24.000000
 -0.466667  0.266667  0.000000     24.000000
 -0.400000  0.266667  0.000000     24.000000
 -0.333333  0.266667  0.000000     24.000000
 -0.266667  0.266667  0.000000     12.000000
  0.333333  0.333333  0.000000      6.000000
  0.400000  0.333333  0.000000     24.000000
  0.466667  0.333333  0.000000     24.000000
 -0.466667  0.333333  0.000000     24.000000
 -0.400000  0.333333  0.000000     24.000000
 -0.333333  0.333333  0.000000     12.000000
  0.400000  0.400000  0.000000      6.000000
  0.466667  0.400000  0.000000     24.000000
 -0.466667  0.400000  0.000000     24.000000
 -0.400000  0.400000  0.000000     12.000000
  0.466667  0.466667  0.000000      6.000000
 -0.466667  0.466667  0.000000     12.000000
  0.200000  0.133333  0.066667     24.000000
  0.266667  0.133333  0.066667     48.000000
  0.333333  0.133333  0.066667     48.000000
  0.400000  0.133333  0.066667     48.000000
  0.466667  0.133333  0.066667     48.000000
 -0.466667  0.133333  0.066667     48.000000
  0.266667  0.200000  0.066667     24.000000
  0.333333  0.200000  0.066667     48.000000
  0.400000  0.200000  0.066667     48.000000
  0.466667  0.200000  0.066667     48.000000
 -0.466667  0.200000  0.066667     48.000000
 -0.400000  0.200000  0.066667     48.000000
 -0.333333  0.200000  0.066667     48.000000
 -0.266667  0.200000  0.066667     48.000000
 -0.200000  0.200000  0.066667     48.000000
 -0.133333  0.200000  0.066667     24.000000
  0.333333  0.266667  0.066667     24.000000
  0.400000  0.266667  0.066667     48.000000
  0.466667  0.266667  0.066667     48.000000
 -0.466667  0.266667  0.066667     48.000000
 -0.400000  0.266667  0.066667     48.000000
 -0.333333  0.266667  0.066667     48.000000
 -0.266667  0.266667  0.066667     48.000000
 -0.200000  0.266667  0.066667     24.000000
  0.400000  0.333333  0.066667     24.000000
  0.466667  0.333333  0.066667     48.000000
 -0.466667  0.333333  0.066667     48.000000
 -0.400000  0.333333  0.066667     48.000000
 -0.333333  0.333333  0.066667     48.000000
 -0.266667  0.333333  0.066667     24.000000
  0.466667  0.400000  0.066667     24.000000
 -0.466667  0.400000  0.066667     48.000000
 -0.400000  0.400000  0.066667     48.000000
 -0.333333  0.400000  0.066667     24.000000
 -0.466667  0.466667  0.066667     24.000000
 -0.400000  0.466667  0.066667     24.000000
  0.400000  0.266667  0.133333     24.000000
  0.466667  0.266667  0.133333     48.000000
 -0.466667  0.266667  0.133333     48.000000
 -0.400000  0.266667  0.133333     48.000000
  0.466667  0.333333  0.133333     24.000000
 -0.466667  0.333333  0.133333     48.000000
 -0.400000  0.333333  0.133333     48.000000
 -0.333333  0.333333  0.133333     48.000000
 -0.266667  0.333333  0.133333     48.000000
 -0.200000  0.333333  0.133333     24.000000
 -0.466667  0.400000  0.133333     24.000000
 -0.400000  0.400000  0.133333     48.000000
 -0.333333  0.400000  0.133333     48.000000
 -0.266667  0.400000  0.133333     24.000000
 -0.400000  0.466667  0.133333     24.000000
 -0.333333  0.466667  0.133333     24.000000
 -0.400000  0.400000  0.200000     24.000000
 -0.333333  0.400000  0.200000     48.000000
 -0.333333  0.466667  0.200000     24.000000
 -0.266667  0.466667  0.200000     24.000000
 
 Following cartesian coordinates:
            Coordinates               Weight
  0.000000  0.000000  0.000000      1.000000
 -0.066667  0.066667  0.066667      8.000000
 -0.133333  0.133333  0.133333      8.000000
 -0.200000  0.200000  0.200000      8.000000
 -0.266667  0.266667  0.266667      8.000000
 -0.333333  0.333333  0.333333      8.000000
 -0.400000  0.400000  0.400000      8.000000
 -0.466667  0.466667  0.466667      8.000000
  0.000000  0.000000  0.133333      6.000000
 -0.066667  0.066667  0.200000     24.000000
 -0.133333  0.133333  0.266667     24.000000
 -0.200000  0.200000  0.333333     24.000000
 -0.266667  0.266667  0.400000     24.000000
 -0.333333  0.333333  0.466667     24.000000
 -0.400000  0.400000  0.533333     24.000000
  0.533333 -0.533333 -0.400000     24.000000
  0.466667 -0.466667 -0.333333     24.000000
  0.400000 -0.400000 -0.266667     24.000000
  0.333333 -0.333333 -0.200000     24.000000
  0.266667 -0.266667 -0.133333     24.000000
  0.200000 -0.200000 -0.066667     24.000000
  0.133333 -0.133333  0.000000     12.000000
  0.000000  0.000000  0.266667      6.000000
 -0.066667  0.066667  0.333333     24.000000
 -0.133333  0.133333  0.400000     24.000000
 -0.200000  0.200000  0.466667     24.000000
 -0.266667  0.266667  0.533333     24.000000
 -0.333333  0.333333  0.600000     24.000000
  0.600000 -0.600000 -0.333333     24.000000
  0.533333 -0.533333 -0.266667     24.000000
  0.466667 -0.466667 -0.200000     24.000000
  0.400000 -0.400000 -0.133333     24.000000
  0.333333 -0.333333 -0.066667     24.000000
  0.266667 -0.266667  0.000000     12.000000
  0.000000  0.000000  0.400000      6.000000
 -0.066667  0.066667  0.466667     24.000000
 -0.133333  0.133333  0.533333     24.000000
 -0.200000  0.200000  0.600000     24.000000
 -0.266667  0.266667  0.666667     24.000000
  0.666667 -0.666667 -0.266667     24.000000
  0.600000 -0.600000 -0.200000     24.000000
  0.533333 -0.533333 -0.133333     24.000000
  0.466667 -0.466667 -0.066667     24.000000
  0.400000 -0.400000  0.000000     12.000000
  0.000000  0.000000  0.533333      6.000000
 -0.066667  0.066667  0.600000     24.000000
 -0.133333  0.133333  0.666667     24.000000
 -0.200000  0.200000  0.733333     24.000000
  0.733333 -0.733333 -0.200000     24.000000
  0.666667 -0.666667 -0.133333     24.000000
  0.600000 -0.600000 -0.066667     24.000000
  0.533333 -0.533333  0.000000     12.000000
  0.000000  0.000000  0.666667      6.000000
 -0.066667  0.066667  0.733333     24.000000
 -0.133333  0.133333  0.800000     24.000000
  0.800000 -0.800000 -0.133333     24.000000
  0.733333 -0.733333 -0.066667     24.000000
  0.666667 -0.666667  0.000000     12.000000
  0.000000  0.000000  0.800000      6.000000
 -0.066667  0.066667  0.866667     24.000000
  0.866667 -0.866667 -0.066667     24.000000
  0.800000 -0.800000  0.000000     12.000000
  0.000000  0.000000  0.933333      6.000000
  0.933333 -0.933333  0.000000     12.000000
  0.000000  0.133333  0.266667     24.000000
 -0.066667  0.200000  0.333333     48.000000
 -0.133333  0.266667  0.400000     48.000000
 -0.200000  0.333333  0.466667     48.000000
 -0.266667  0.400000  0.533333     48.000000
  0.666667 -0.533333 -0.400000     48.000000
  0.000000  0.133333  0.400000     24.000000
 -0.066667  0.200000  0.466667     48.000000
 -0.133333  0.266667  0.533333     48.000000
 -0.200000  0.333333  0.600000     48.000000
  0.733333 -0.600000 -0.333333     48.000000
  0.666667 -0.533333 -0.266667     48.000000
  0.600000 -0.466667 -0.200000     48.000000
  0.533333 -0.400000 -0.133333     48.000000
  0.466667 -0.333333 -0.066667     48.000000
  0.400000 -0.266667  0.000000     24.000000
  0.000000  0.133333  0.533333     24.000000
 -0.066667  0.200000  0.600000     48.000000
 -0.133333  0.266667  0.666667     48.000000
  0.800000 -0.666667 -0.266667     48.000000
  0.733333 -0.600000 -0.200000     48.000000
  0.666667 -0.533333 -0.133333     48.000000
  0.600000 -0.466667 -0.066667     48.000000
  0.533333 -0.400000 -0.000000     24.000000
 -0.000000  0.133333  0.666667     24.000000
 -0.066667  0.200000  0.733333     48.000000
  0.866667 -0.733333 -0.200000     48.000000
  0.800000 -0.666667 -0.133333     48.000000
  0.733333 -0.600000 -0.066667     48.000000
  0.666667 -0.533333 -0.000000     24.000000
  0.000000  0.133333  0.800000     24.000000
  0.933333 -0.800000 -0.133333     48.000000
  0.866667 -0.733333 -0.066667     48.000000
  0.800000 -0.666667  0.000000     24.000000
  1.000000 -0.866667 -0.066667     24.000000
  0.933333 -0.800000 -0.000000     24.000000
 -0.000000  0.266667  0.533333     24.000000
 -0.066667  0.333333  0.600000     48.000000
  0.866667 -0.600000 -0.333333     48.000000
  0.800000 -0.533333 -0.266667     48.000000
 -0.000000  0.266667  0.666667     24.000000
  0.933333 -0.666667 -0.266667     48.000000
  0.866667 -0.600000 -0.200000     48.000000
  0.800000 -0.533333 -0.133333     48.000000
  0.733333 -0.466667 -0.066667     48.000000
  0.666667 -0.400000 -0.000000     24.000000
  1.000000 -0.733333 -0.200000     24.000000
  0.933333 -0.666667 -0.133333     48.000000
  0.866667 -0.600000 -0.066667     48.000000
  0.800000 -0.533333  0.000000     24.000000
  1.000000 -0.733333 -0.066667     24.000000
  0.933333 -0.666667  0.000000     24.000000
  1.000000 -0.600000 -0.200000     24.000000
  0.933333 -0.533333 -0.133333     48.000000
  1.000000 -0.600000 -0.066667     24.000000
  0.933333 -0.533333  0.000000     24.000000
 


--------------------------------------------------------------------------------------------------------




 Dimension of arrays:
   k-points           NKPTS =    120   k-points in BZ     NKDIM =    120   number of bands    NBANDS=     16
   number of dos      NEDOS =    301   number of ions     NIONS =      2
   non local maximal  LDIM  =      4   non local SUM 2l+1 LMDIM =      8
   total plane-waves  NPLWV =   8000
   max r-space proj   IRMAX =      1   max aug-charges    IRDMAX=   5682
   dimension x,y,z NGX =    20 NGY =   20 NGZ =   20
   dimension x,y,z NGXF=    40 NGYF=   40 NGZF=   40
   support grid    NGXF=    40 NGYF=   40 NGZF=   40
   ions per type =               2
 NGX,Y,Z   is equivalent  to a cutoff of   8.11,  8.11,  8.11 a.u.
 NGXF,Y,Z  is equivalent  to a cutoff of  16.21, 16.21, 16.21 a.u.


 I would recommend the setting:
   dimension x,y,z NGX =    19 NGY =   19 NGZ =   19
 SYSTEM =  Silicon                                 
 POSCAR =  Real silicon structure                  

 Startparameter for this run:
   NWRITE =      2    write-flag & timer
   PREC   = normal    normal or accurate (medium, high low for compatibility)
   ISTART =      0    job   : 0-new  1-cont  2-samecut
   ICHARG =      2    charge: 1-file 2-atom 10-const
   ISPIN  =      1    spin polarized calculation?
   LNONCOLLINEAR =      F non collinear calculations
   LSORBIT =      F    spin-orbit coupling
   INIWAV =      1    electr: 0-lowe 1-rand  2-diag
   LASPH  =      F    aspherical Exc in radial PAW
   METAGGA=      F    non-selfconsistent MetaGGA calc.

 Electronic Relaxation 1
   ENCUT  =  350.0 eV  25.72 Ry    5.07 a.u.   6.26  6.26  6.26*2*pi/ulx,y,z
   ENINI  =  350.0     initial cutoff
   ENAUG  =  322.1 eV  augmentation charge cutoff
   NELM   =    100;   NELMIN=  4; NELMDL= -5     # of ELM steps 
   EDIFF  = 0.1E-05   stopping-criterion for ELM
   LREAL  =      F    real-space projection
   NLSPLINE    = F    spline interpolate recip. space projectors
   LCOMPAT=      F    compatible to vasp.4.4
   GGA_COMPAT  = T    GGA compatible to vasp.4.4-vasp.4.6
   LMAXPAW     = -100 max onsite density
   LMAXMIX     =    2 max onsite mixed and CHGCAR
   VOSKOWN=      0    Vosko Wilk Nusair interpolation
   ROPT   =    0.00000
 Ionic relaxation
   EDIFFG = 0.1E-04   stopping-criterion for IOM
   NSW    =      0    number of steps for IOM
   NBLOCK =      1;   KBLOCK =      1    inner block; outer block 
   IBRION =     -1    ionic relax: 0-MD 1-quasi-New 2-CG
   NFREE  =      0    steps in history (QN), initial steepest desc. (CG)
   ISIF   =      2    stress and relaxation
   IWAVPR =     10    prediction:  0-non 1-charg 2-wave 3-comb
   ISYM   =      2    0-nonsym 1-usesym 2-fastsym
   LCORR  =      T    Harris-Foulkes like correction to forces

   POTIM  = 0.5000    time-step for ionic-motion
   TEIN   =    0.0    initial temperature
   TEBEG  =    0.0;   TEEND  =   0.0 temperature during run
   SMASS  =  -3.00    Nose mass-parameter (am)
   estimated Nose-frequenzy (Omega)   =  0.10E-29 period in steps =****** mass=  -0.384E-27a.u.
   SCALEE = 1.0000    scale energy and forces
   NPACO  =    256;   APACO  = 16.0  distance and # of slots for P.C.
   PSTRESS=    0.0 pullay stress

  Mass of Ions in am
   POMASS =  28.09
  Ionic Valenz
   ZVAL   =   4.00
  Atomic Wigner-Seitz radii
   RWIGS  =  -1.00
  virtual crystal weights 
   VCA    =   1.00
   NELECT =       8.0000    total number of electrons
   NUPDOWN=      -1.0000    fix difference up-down

 DOS related values:
   EMIN   =  10.00;   EMAX   =-10.00  energy-range for DOS
   EFERMI =   0.00
   ISMEAR =     0;   SIGMA  =   0.10  broadening in eV -4-tet -1-fermi 0-gaus

 Electronic relaxation 2 (details)
   IALGO  =     38    algorithm
   LDIAG  =      T    sub-space diagonalisation (order eigenvalues)
   LSUBROT=      F    optimize rotation matrix (better conditioning)
   TURBO    =      0    0=normal 1=particle mesh
   IRESTART =      0    0=no restart 2=restart with 2 vectors
   NREBOOT  =      0    no. of reboots
   NMIN     =      0    reboot dimension
   EREF     =   0.00    reference energy to select bands
   IMIX   =      4    mixing-type and parameters
     AMIX     =   0.40;   BMIX     =  1.00
     AMIX_MAG =   1.60;   BMIX_MAG =  1.00
     AMIN     =   0.10
     WC   =   100.;   INIMIX=   1;  MIXPRE=   1;  MAXMIX= -45

 Intra band minimization:
   WEIMIN = 0.0000     energy-eigenvalue tresh-hold
   EBREAK =  0.16E-07  absolut break condition
   DEPER  =   0.30     relativ break condition  

   TIME   =   0.40     timestep for ELM

  volume/ion in A,a.u.               =      24.39       164.59
  Fermi-wavevector in a.u.,A,eV,Ry     =   0.896114  1.693411 10.925766  0.803021
  Thomas-Fermi vector in A             =   2.018532
 
 Write flags
   LWAVE  =      T    write WAVECAR
   LCHARG =      T    write CHGCAR
   LVTOT  =      F    write LOCPOT, total local potential
   LVHAR  =      F    write LOCPOT, Hartree potential only
   LELF   =      F    write electronic localiz. function (ELF)
   LORBIT =      0    0 simple, 1 ext, 2 COOP (PROOUT)


 Dipole corrections
   LMONO  =      F    monopole corrections only (constant potential shift)
   LDIPOL =      F    correct potential (dipole corrections)
   IDIPOL =      0    1-x, 2-y, 3-z, 4-all directions 
   EPSILON=  1.0000000 bulk dielectric constant

 Exchange correlation treatment:
   GGA     =    --    GGA type
   LEXCH   =     8    internal setting for exchange type
   VOSKOWN=      0    Vosko Wilk Nusair interpolation
   LHFCALC =     F    Hartree Fock is set to
   LHFONE  =     F    Hartree Fock one center treatment
   AEXX    =    0.0000 exact exchange contribution

 Linear response parameters
   LEPSILON=     F    determine dielectric tensor
   LRPA    =     F    only Hartree local field effects (RPA)
   LNABLA  =     F    use nabla operator in PAW spheres
   LVEL    =     F    velocity operator in full k-point grid
   LINTERFAST=   F  fast interpolation
   KINTER  =     0    interpolate to denser k-point grid
   CSHIFT  =0.1000    complex shift for real part using Kramers Kronig
   OMEGAMAX=  -1.0    maximum frequency
   DEG_THRESHOLD= 0.2000000E-02 threshold for treating states as degnerate
   RTIME   =    0.100 relaxation time in fs

 Orbital magnetization related:
   ORBITALMAG=     F  switch on orbital magnetization
   LCHIMAG   =     F  perturbation theory with respect to B field
   DQ        =  0.001000  dq finite difference perturbation B field



--------------------------------------------------------------------------------------------------------


 Static calculation
 charge density and potential will be updated during run
 non-spin polarized calculation
 Variant of blocked Davidson
 Davidson routine will perform the subspace rotation
 perform sub-space diagonalisation
    after iterative eigenvector-optimisation
 modified Broyden-mixing scheme, WC =      100.0
 initial mixing is a Kerker type mixing with AMIX =  0.4000 and BMIX =      1.0000
 Hartree-type preconditioning will be used
 using additional bands           12
 reciprocal scheme for non local part
 use partial core corrections
 calculate Harris-corrections to forces 
   (improved forces if not selfconsistent)
 use gradient corrections 
 use of overlap-Matrix (Vanderbilt PP)
 Gauss-broadening in eV      SIGMA  =   0.10


--------------------------------------------------------------------------------------------------------


  energy-cutoff  :      350.00
  volume of cell :       48.78
      direct lattice vectors                 reciprocal lattice vectors
     0.000000000  2.900000000  2.900000000    -0.172413793  0.172413793  0.172413793
     2.900000000  0.000000000  2.900000000     0.172413793 -0.172413793  0.172413793
     2.900000000  2.900000000  0.000000000     0.172413793  0.172413793 -0.172413793

  length of vectors
     4.101219331  4.101219331  4.101219331     0.298629450  0.298629450  0.298629450


 
 k-points in units of 2pi/SCALE and weight: k-points                                
   0.00000000  0.00000000  0.00000000       0.000
  -0.06666667  0.06666667  0.06666667       0.002
  -0.13333333  0.13333333  0.13333333       0.002
  -0.20000000  0.20000000  0.20000000       0.002
  -0.26666667  0.26666667  0.26666667       0.002
  -0.33333333  0.33333333  0.33333333       0.002
  -0.40000000  0.40000000  0.40000000       0.002
  -0.46666667  0.46666667  0.46666667       0.002
   0.00000000  0.00000000  0.13333333       0.002
  -0.06666667  0.06666667  0.20000000       0.007
  -0.13333333  0.13333333  0.26666667       0.007
  -0.20000000  0.20000000  0.33333333       0.007
  -0.26666667  0.26666667  0.40000000       0.007
  -0.33333333  0.33333333  0.46666667       0.007
  -0.40000000  0.40000000  0.53333333       0.007
   0.53333333 -0.53333333 -0.40000000       0.007
   0.46666667 -0.46666667 -0.33333333       0.007
   0.40000000 -0.40000000 -0.26666667       0.007
   0.33333333 -0.33333333 -0.20000000       0.007
   0.26666667 -0.26666667 -0.13333333       0.007
   0.20000000 -0.20000000 -0.06666667       0.007
   0.13333333 -0.13333333  0.00000000       0.004
   0.00000000  0.00000000  0.26666667       0.002
  -0.06666667  0.06666667  0.33333333       0.007
  -0.13333333  0.13333333  0.40000000       0.007
  -0.20000000  0.20000000  0.46666667       0.007
  -0.26666667  0.26666667  0.53333333       0.007
  -0.33333333  0.33333333  0.60000000       0.007
   0.60000000 -0.60000000 -0.33333333       0.007
   0.53333333 -0.53333333 -0.26666667       0.007
   0.46666667 -0.46666667 -0.20000000       0.007
   0.40000000 -0.40000000 -0.13333333       0.007
   0.33333333 -0.33333333 -0.06666667       0.007
   0.26666667 -0.26666667  0.00000000       0.004
   0.00000000  0.00000000  0.40000000       0.002
  -0.06666667  0.06666667  0.46666667       0.007
  -0.13333333  0.13333333  0.53333333       0.007
  -0.20000000  0.20000000  0.60000000       0.007
  -0.26666667  0.26666667  0.66666667       0.007
   0.66666667 -0.66666667 -0.26666667       0.007
   0.60000000 -0.60000000 -0.20000000       0.007
   0.53333333 -0.53333333 -0.13333333       0.007
   0.46666667 -0.46666667 -0.06666667       0.007
   0.40000000 -0.40000000  0.00000000       0.004
   0.00000000  0.00000000  0.53333333       0.002
  -0.06666667  0.06666667  0.60000000       0.007
  -0.13333333  0.13333333  0.66666667       0.007
  -0.20000000  0.20000000  0.73333333       0.007
   0.73333333 -0.73333333 -0.20000000       0.007
   0.66666667 -0.66666667 -0.13333333       0.007
   0.60000000 -0.60000000 -0.06666667       0.007
   0.53333333 -0.53333333  0.00000000       0.004
   0.00000000  0.00000000  0.66666667       0.002
  -0.06666667  0.06666667  0.73333333       0.007
  -0.13333333  0.13333333  0.80000000       0.007
   0.80000000 -0.80000000 -0.13333333       0.007
   0.73333333 -0.73333333 -0.06666667       0.007
   0.66666667 -0.66666667  0.00000000       0.004
   0.00000000  0.00000000  0.80000000       0.002
  -0.06666667  0.06666667  0.86666667       0.007
   0.86666667 -0.86666667 -0.06666667       0.007
   0.80000000 -0.80000000  0.00000000       0.004
   0.00000000  0.00000000  0.93333333       0.002
   0.93333333 -0.93333333  0.00000000       0.004
   0.00000000  0.13333333  0.26666667       0.007
  -0.06666667  0.20000000  0.33333333       0.014
  -0.13333333  0.26666667  0.40000000       0.014
  -0.20000000  0.33333333  0.46666667       0.014
  -0.26666667  0.40000000  0.53333333       0.014
   0.66666667 -0.53333333 -0.40000000       0.014
   0.00000000  0.13333333  0.40000000       0.007
  -0.06666667  0.20000000  0.46666667       0.014
  -0.13333333  0.26666667  0.53333333       0.014
  -0.20000000  0.33333333  0.60000000       0.014
   0.73333333 -0.60000000 -0.33333333       0.014
   0.66666667 -0.53333333 -0.26666667       0.014
   0.60000000 -0.46666667 -0.20000000       0.014
   0.53333333 -0.40000000 -0.13333333       0.014
   0.46666667 -0.33333333 -0.06666667       0.014
   0.40000000 -0.26666667  0.00000000       0.007
   0.00000000  0.13333333  0.53333333       0.007
  -0.06666667  0.20000000  0.60000000       0.014
  -0.13333333  0.26666667  0.66666667       0.014
   0.80000000 -0.66666667 -0.26666667       0.014
   0.73333333 -0.60000000 -0.20000000       0.014
   0.66666667 -0.53333333 -0.13333333       0.014
   0.60000000 -0.46666667 -0.06666667       0.014
   0.53333333 -0.40000000 -0.00000000       0.007
  -0.00000000  0.13333333  0.66666667       0.007
  -0.06666667  0.20000000  0.73333333       0.014
   0.86666667 -0.73333333 -0.20000000       0.014
   0.80000000 -0.66666667 -0.13333333       0.014
   0.73333333 -0.60000000 -0.06666667       0.014
   0.66666667 -0.53333333 -0.00000000       0.007
   0.00000000  0.13333333  0.80000000       0.007
   0.93333333 -0.80000000 -0.13333333       0.014
   0.86666667 -0.73333333 -0.06666667       0.014
   0.80000000 -0.66666667  0.00000000       0.007
   1.00000000 -0.86666667 -0.06666667       0.007
   0.93333333 -0.80000000 -0.00000000       0.007
  -0.00000000  0.26666667  0.53333333       0.007
  -0.06666667  0.33333333  0.60000000       0.014
   0.86666667 -0.60000000 -0.33333333       0.014
   0.80000000 -0.53333333 -0.26666667       0.014
  -0.00000000  0.26666667  0.66666667       0.007
   0.93333333 -0.66666667 -0.26666667       0.014
   0.86666667 -0.60000000 -0.20000000       0.014
   0.80000000 -0.53333333 -0.13333333       0.014
   0.73333333 -0.46666667 -0.06666667       0.014
   0.66666667 -0.40000000 -0.00000000       0.007
   1.00000000 -0.73333333 -0.20000000       0.007
   0.93333333 -0.66666667 -0.13333333       0.014
   0.86666667 -0.60000000 -0.06666667       0.014
   0.80000000 -0.53333333  0.00000000       0.007
   1.00000000 -0.73333333 -0.06666667       0.007
   0.93333333 -0.66666667  0.00000000       0.007
   1.00000000 -0.60000000 -0.20000000       0.007
   0.93333333 -0.53333333 -0.13333333       0.014
   1.00000000 -0.60000000 -0.06666667       0.007
   0.93333333 -0.53333333  0.00000000       0.007
 
 k-points in reciprocal lattice and weights: k-points                                
   0.00000000  0.00000000  0.00000000       0.000
   0.06666667  0.00000000  0.00000000       0.002
   0.13333333  0.00000000  0.00000000       0.002
   0.20000000  0.00000000  0.00000000       0.002
   0.26666667  0.00000000  0.00000000       0.002
   0.33333333  0.00000000  0.00000000       0.002
   0.40000000  0.00000000  0.00000000       0.002
   0.46666667  0.00000000  0.00000000       0.002
   0.06666667  0.06666667  0.00000000       0.002
   0.13333333  0.06666667  0.00000000       0.007
   0.20000000  0.06666667  0.00000000       0.007
   0.26666667  0.06666667  0.00000000       0.007
   0.33333333  0.06666667  0.00000000       0.007
   0.40000000  0.06666667  0.00000000       0.007
   0.46666667  0.06666667  0.00000000       0.007
  -0.46666667  0.06666667  0.00000000       0.007
  -0.40000000  0.06666667  0.00000000       0.007
  -0.33333333  0.06666667  0.00000000       0.007
  -0.26666667  0.06666667  0.00000000       0.007
  -0.20000000  0.06666667  0.00000000       0.007
  -0.13333333  0.06666667  0.00000000       0.007
  -0.06666667  0.06666667  0.00000000       0.004
   0.13333333  0.13333333  0.00000000       0.002
   0.20000000  0.13333333  0.00000000       0.007
   0.26666667  0.13333333  0.00000000       0.007
   0.33333333  0.13333333  0.00000000       0.007
   0.40000000  0.13333333  0.00000000       0.007
   0.46666667  0.13333333  0.00000000       0.007
  -0.46666667  0.13333333  0.00000000       0.007
  -0.40000000  0.13333333  0.00000000       0.007
  -0.33333333  0.13333333  0.00000000       0.007
  -0.26666667  0.13333333  0.00000000       0.007
  -0.20000000  0.13333333  0.00000000       0.007
  -0.13333333  0.13333333  0.00000000       0.004
   0.20000000  0.20000000  0.00000000       0.002
   0.26666667  0.20000000  0.00000000       0.007
   0.33333333  0.20000000  0.00000000       0.007
   0.40000000  0.20000000  0.00000000       0.007
   0.46666667  0.20000000  0.00000000       0.007
  -0.46666667  0.20000000  0.00000000       0.007
  -0.40000000  0.20000000  0.00000000       0.007
  -0.33333333  0.20000000  0.00000000       0.007
  -0.26666667  0.20000000  0.00000000       0.007
  -0.20000000  0.20000000  0.00000000       0.004
   0.26666667  0.26666667  0.00000000       0.002
   0.33333333  0.26666667  0.00000000       0.007
   0.40000000  0.26666667  0.00000000       0.007
   0.46666667  0.26666667  0.00000000       0.007
  -0.46666667  0.26666667  0.00000000       0.007
  -0.40000000  0.26666667  0.00000000       0.007
  -0.33333333  0.26666667  0.00000000       0.007
  -0.26666667  0.26666667  0.00000000       0.004
   0.33333333  0.33333333  0.00000000       0.002
   0.40000000  0.33333333  0.00000000       0.007
   0.46666667  0.33333333  0.00000000       0.007
  -0.46666667  0.33333333  0.00000000       0.007
  -0.40000000  0.33333333  0.00000000       0.007
  -0.33333333  0.33333333  0.00000000       0.004
   0.40000000  0.40000000  0.00000000       0.002
   0.46666667  0.40000000  0.00000000       0.007
  -0.46666667  0.40000000  0.00000000       0.007
  -0.40000000  0.40000000  0.00000000       0.004
   0.46666667  0.46666667  0.00000000       0.002
  -0.46666667  0.46666667  0.00000000       0.004
   0.20000000  0.13333333  0.06666667       0.007
   0.26666667  0.13333333  0.06666667       0.014
   0.33333333  0.13333333  0.06666667       0.014
   0.40000000  0.13333333  0.06666667       0.014
   0.46666667  0.13333333  0.06666667       0.014
  -0.46666667  0.13333333  0.06666667       0.014
   0.26666667  0.20000000  0.06666667       0.007
   0.33333333  0.20000000  0.06666667       0.014
   0.40000000  0.20000000  0.06666667       0.014
   0.46666667  0.20000000  0.06666667       0.014
  -0.46666667  0.20000000  0.06666667       0.014
  -0.40000000  0.20000000  0.06666667       0.014
  -0.33333333  0.20000000  0.06666667       0.014
  -0.26666667  0.20000000  0.06666667       0.014
  -0.20000000  0.20000000  0.06666667       0.014
  -0.13333333  0.20000000  0.06666667       0.007
   0.33333333  0.26666667  0.06666667       0.007
   0.40000000  0.26666667  0.06666667       0.014
   0.46666667  0.26666667  0.06666667       0.014
  -0.46666667  0.26666667  0.06666667       0.014
  -0.40000000  0.26666667  0.06666667       0.014
  -0.33333333  0.26666667  0.06666667       0.014
  -0.26666667  0.26666667  0.06666667       0.014
  -0.20000000  0.26666667  0.06666667       0.007
   0.40000000  0.33333333  0.06666667       0.007
   0.46666667  0.33333333  0.06666667       0.014
  -0.46666667  0.33333333  0.06666667       0.014
  -0.40000000  0.33333333  0.06666667       0.014
  -0.33333333  0.33333333  0.06666667       0.014
  -0.26666667  0.33333333  0.06666667       0.007
   0.46666667  0.40000000  0.06666667       0.007
  -0.46666667  0.40000000  0.06666667       0.014
  -0.40000000  0.40000000  0.06666667       0.014
  -0.33333333  0.40000000  0.06666667       0.007
  -0.46666667  0.46666667  0.06666667       0.007
  -0.40000000  0.46666667  0.06666667       0.007
   0.40000000  0.26666667  0.13333333       0.007
   0.46666667  0.26666667  0.13333333       0.014
  -0.46666667  0.26666667  0.13333333       0.014
  -0.40000000  0.26666667  0.13333333       0.014
   0.46666667  0.33333333  0.13333333       0.007
  -0.46666667  0.33333333  0.13333333       0.014
  -0.40000000  0.33333333  0.13333333       0.014
  -0.33333333  0.33333333  0.13333333       0.014
  -0.26666667  0.33333333  0.13333333       0.014
  -0.20000000  0.33333333  0.13333333       0.007
  -0.46666667  0.40000000  0.13333333       0.007
  -0.40000000  0.40000000  0.13333333       0.014
  -0.33333333  0.40000000  0.13333333       0.014
  -0.26666667  0.40000000  0.13333333       0.007
  -0.40000000  0.46666667  0.13333333       0.007
  -0.33333333  0.46666667  0.13333333       0.007
  -0.40000000  0.40000000  0.20000000       0.007
  -0.33333333  0.40000000  0.20000000       0.014
  -0.33333333  0.46666667  0.20000000       0.007
  -0.26666667  0.46666667  0.20000000       0.007
 
 position of ions in fractional coordinates (direct lattice) 
   0.87500000  0.87500000  0.87500000
   0.12500000  0.12500000  0.12500000
 
 position of ions in cartesian coordinates  (Angst):
   5.07500000  5.07500000  5.07500000
   0.72500000  0.72500000  0.72500000
 


--------------------------------------------------------------------------------------------------------


 k-point  1 :   0.0000 0.0000 0.0000  plane waves:     725
 k-point  2 :   0.0667 0.0000 0.0000  plane waves:     725
 k-point  3 :   0.1333 0.0000 0.0000  plane waves:     718
 k-point  4 :   0.2000 0.0000 0.0000  plane waves:     718
 k-point  5 :   0.2667 0.0000 0.0000  plane waves:     727
 k-point  6 :   0.3333 0.0000 0.0000  plane waves:     745
 k-point  7 :   0.4000 0.0000 0.0000  plane waves:     739
 k-point  8 :   0.4667 0.0000 0.0000  plane waves:     724
 k-point  9 :   0.0667 0.0667 0.0000  plane waves:     729
 k-point 10 :   0.1333 0.0667 0.0000  plane waves:     721
 k-point 11 :   0.2000 0.0667 0.0000  plane waves:     724
 k-point 12 :   0.2667 0.0667 0.0000  plane waves:     729
 k-point 13 :   0.3333 0.0667 0.0000  plane waves:     732
 k-point 14 :   0.4000 0.0667 0.0000  plane waves:     732
 k-point 15 :   0.4667 0.0667 0.0000  plane waves:     731
 k-point 16 :  -0.4667 0.0667 0.0000  plane waves:     727
 k-point 17 :  -0.4000 0.0667 0.0000  plane waves:     736
 k-point 18 :  -0.3333 0.0667 0.0000  plane waves:     737
 k-point 19 :  -0.2667 0.0667 0.0000  plane waves:     728
 k-point 20 :  -0.2000 0.0667 0.0000  plane waves:     728
 k-point 21 :  -0.1333 0.0667 0.0000  plane waves:     717
 k-point 22 :  -0.0667 0.0667 0.0000  plane waves:     729
 k-point 23 :   0.1333 0.1333 0.0000  plane waves:     721
 k-point 24 :   0.2000 0.1333 0.0000  plane waves:     717
 k-point 25 :   0.2667 0.1333 0.0000  plane waves:     722
 k-point 26 :   0.3333 0.1333 0.0000  plane waves:     727
 k-point 27 :   0.4000 0.1333 0.0000  plane waves:     727
 k-point 28 :   0.4667 0.1333 0.0000  plane waves:     726
 k-point 29 :  -0.4667 0.1333 0.0000  plane waves:     730
 k-point 30 :  -0.4000 0.1333 0.0000  plane waves:     727
 k-point 31 :  -0.3333 0.1333 0.0000  plane waves:     732
 k-point 32 :  -0.2667 0.1333 0.0000  plane waves:     731
 k-point 33 :  -0.2000 0.1333 0.0000  plane waves:     728
 k-point 34 :  -0.1333 0.1333 0.0000  plane waves:     728
 k-point 35 :   0.2000 0.2000 0.0000  plane waves:     721
 k-point 36 :   0.2667 0.2000 0.0000  plane waves:     722
 k-point 37 :   0.3333 0.2000 0.0000  plane waves:     725
 k-point 38 :   0.4000 0.2000 0.0000  plane waves:     725
 k-point 39 :   0.4667 0.2000 0.0000  plane waves:     722
 k-point 40 :  -0.4667 0.2000 0.0000  plane waves:     722
 k-point 41 :  -0.4000 0.2000 0.0000  plane waves:     721
 k-point 42 :  -0.3333 0.2000 0.0000  plane waves:     724
 k-point 43 :  -0.2667 0.2000 0.0000  plane waves:     728
 k-point 44 :  -0.2000 0.2000 0.0000  plane waves:     728
 k-point 45 :   0.2667 0.2667 0.0000  plane waves:     721
 k-point 46 :   0.3333 0.2667 0.0000  plane waves:     724
 k-point 47 :   0.4000 0.2667 0.0000  plane waves:     722
 k-point 48 :   0.4667 0.2667 0.0000  plane waves:     724
 k-point 49 :  -0.4667 0.2667 0.0000  plane waves:     719
 k-point 50 :  -0.4000 0.2667 0.0000  plane waves:     720
 k-point 51 :  -0.3333 0.2667 0.0000  plane waves:     724
 k-point 52 :  -0.2667 0.2667 0.0000  plane waves:     728
 k-point 53 :   0.3333 0.3333 0.0000  plane waves:     717
 k-point 54 :   0.4000 0.3333 0.0000  plane waves:     724
 k-point 55 :   0.4667 0.3333 0.0000  plane waves:     726
 k-point 56 :  -0.4667 0.3333 0.0000  plane waves:     724
 k-point 57 :  -0.4000 0.3333 0.0000  plane waves:     723
 k-point 58 :  -0.3333 0.3333 0.0000  plane waves:     718
 k-point 59 :   0.4000 0.4000 0.0000  plane waves:     729
 k-point 60 :   0.4667 0.4000 0.0000  plane waves:     725
 k-point 61 :  -0.4667 0.4000 0.0000  plane waves:     729
 k-point 62 :  -0.4000 0.4000 0.0000  plane waves:     728
 k-point 63 :   0.4667 0.4667 0.0000  plane waves:     740
 k-point 64 :  -0.4667 0.4667 0.0000  plane waves:     728
 k-point 65 :   0.2000 0.1333 0.0667  plane waves:     720
 k-point 66 :   0.2667 0.1333 0.0667  plane waves:     727
 k-point 67 :   0.3333 0.1333 0.0667  plane waves:     726
 k-point 68 :   0.4000 0.1333 0.0667  plane waves:     730
 k-point 69 :   0.4667 0.1333 0.0667  plane waves:     728
 k-point 70 :  -0.4667 0.1333 0.0667  plane waves:     731
 k-point 71 :   0.2667 0.2000 0.0667  plane waves:     719
 k-point 72 :   0.3333 0.2000 0.0667  plane waves:     722
 k-point 73 :   0.4000 0.2000 0.0667  plane waves:     728
 k-point 74 :   0.4667 0.2000 0.0667  plane waves:     722
 k-point 75 :  -0.4667 0.2000 0.0667  plane waves:     728
 k-point 76 :  -0.4000 0.2000 0.0667  plane waves:     724
 k-point 77 :  -0.3333 0.2000 0.0667  plane waves:     724
 k-point 78 :  -0.2667 0.2000 0.0667  plane waves:     724
 k-point 79 :  -0.2000 0.2000 0.0667  plane waves:     727
 k-point 80 :  -0.1333 0.2000 0.0667  plane waves:     731
 k-point 81 :   0.3333 0.2667 0.0667  plane waves:     726
 k-point 82 :   0.4000 0.2667 0.0667  plane waves:     727
 k-point 83 :   0.4667 0.2667 0.0667  plane waves:     727
 k-point 84 :  -0.4667 0.2667 0.0667  plane waves:     726
 k-point 85 :  -0.4000 0.2667 0.0667  plane waves:     723
 k-point 86 :  -0.3333 0.2667 0.0667  plane waves:     720
 k-point 87 :  -0.2667 0.2667 0.0667  plane waves:     723
 k-point 88 :  -0.2000 0.2667 0.0667  plane waves:     724
 k-point 89 :   0.4000 0.3333 0.0667  plane waves:     721
 k-point 90 :   0.4667 0.3333 0.0667  plane waves:     724
 k-point 91 :  -0.4667 0.3333 0.0667  plane waves:     723
 k-point 92 :  -0.4000 0.3333 0.0667  plane waves:     724
 k-point 93 :  -0.3333 0.3333 0.0667  plane waves:     724
 k-point 94 :  -0.2667 0.3333 0.0667  plane waves:     720
 k-point 95 :   0.4667 0.4000 0.0667  plane waves:     731
 k-point 96 :  -0.4667 0.4000 0.0667  plane waves:     728
 k-point 97 :  -0.4000 0.4000 0.0667  plane waves:     726
 k-point 98 :  -0.3333 0.4000 0.0667  plane waves:     721
 k-point 99 :  -0.4667 0.4667 0.0667  plane waves:     724
 k-point ** :  -0.4000 0.4667 0.0667  plane waves:     724
 k-point ** :   0.4000 0.2667 0.1333  plane waves:     729
 k-point ** :   0.4667 0.2667 0.1333  plane waves:     726
 k-point ** :  -0.4667 0.2667 0.1333  plane waves:     725
 k-point ** :  -0.4000 0.2667 0.1333  plane waves:     722
 k-point ** :   0.4667 0.3333 0.1333  plane waves:     724
 k-point ** :  -0.4667 0.3333 0.1333  plane waves:     727
 k-point ** :  -0.4000 0.3333 0.1333  plane waves:     723
 k-point ** :  -0.3333 0.3333 0.1333  plane waves:     724
 k-point ** :  -0.2667 0.3333 0.1333  plane waves:     723
 k-point ** :  -0.2000 0.3333 0.1333  plane waves:     728
 k-point ** :  -0.4667 0.4000 0.1333  plane waves:     728
 k-point ** :  -0.4000 0.4000 0.1333  plane waves:     727
 k-point ** :  -0.3333 0.4000 0.1333  plane waves:     722
 k-point ** :  -0.2667 0.4000 0.1333  plane waves:     724
 k-point ** :  -0.4000 0.4667 0.1333  plane waves:     728
 k-point ** :  -0.3333 0.4667 0.1333  plane waves:     724
 k-point ** :  -0.4000 0.4000 0.2000  plane waves:     730
 k-point ** :  -0.3333 0.4000 0.2000  plane waves:     724
 k-point ** :  -0.3333 0.4667 0.2000  plane waves:     724
 k-point ** :  -0.2667 0.4667 0.2000  plane waves:     727

 maximum and minimum number of plane-waves per node :       745      717

 maximum number of plane-waves:       745
 maximum index in each direction: 
   IXMAX=    6   IYMAX=    6   IZMAX=    6
   IXMIN=   -6   IYMIN=   -6   IZMIN=   -6

 WARNING: aliasing errors must be expected set NGX to  26 to avoid them
 WARNING: aliasing errors must be expected set NGY to  26 to avoid them
 WARNING: aliasing errors must be expected set NGZ to  26 to avoid them
 aliasing errors are usually negligible using standard VASP settings
 and one can safely disregard these warnings

 serial   3D FFT for wavefunctions
 parallel 3D FFT for charge:
    minimum data exchange during FFTs selected (reduces bandwidth)


 total amount of memory used by VASP on root node    38041. kBytes
========================================================================

   base      :      30000. kBytes
   nonl-proj :       5799. kBytes
   fftplans  :        198. kBytes
   grid      :        564. kBytes
   one-center:          6. kBytes
   wavefun   :       1474. kBytes
 
     INWAV:  cpu time    0.0000: real time    0.0000
 Broyden mixing: mesh for mixing (old mesh)
   NGX = 13   NGY = 13   NGZ = 13
  (NGX  = 40   NGY  = 40   NGZ  = 40)
  gives a total of   2197 points

 initial charge density was supplied:
 charge density of overlapping atoms calculated
 number of electron       8.0000000 magnetization 
 keeping initial charge density in first step


--------------------------------------------------------------------------------------------------------


 Maximum index for augmentation-charges          595 (set IRDMAX)


--------------------------------------------------------------------------------------------------------


 First call to EWALD:  gamma=   0.485
 Maximum number of real-space cells 3x 3x 3
 Maximum number of reciprocal cells 3x 3x 3

 FEWALD executed in parallel
    FEWALD:  cpu time    0.0030: real time    0.0021


----------------------------------------- Iteration    1(   1)  ---------------------------------------


    POTLOK:  cpu time    0.0050: real time    0.0044
    SETDIJ:  cpu time    0.0010: real time    0.0016
     EDDAV:  cpu time    0.4049: real time    0.4042
       DOS:  cpu time    0.0010: real time    0.0009
    --------------------------------------------
      LOOP:  cpu time    0.4129: real time    0.4254

 eigenvalue-minimisations  :  3856
 total energy-change (2. order) :-0.3901136E+01  (-0.2571493E+03)
 number of electron       8.0000000 magnetization 
 augmentation part        8.0000000 magnetization 

 Free energy of the ion-electron system (eV)
  ---------------------------------------------------
  alpha Z        PSCENC =         2.76051321
  Ewald energy   TEWEN  =      -213.98274834
  -Hartree energ DENC   =       -14.16697611
  -exchange      EXHF   =         0.00000000
  -V(xc)+E(xc)   XCENC  =       -19.33178534
  PAW double counting   =        65.95520812      -30.76852678
  entropy T*S    EENTRO =        -0.00100228
  eigenvalues    EBANDS =        -0.49707302
  atomic energy  EATOM  =       206.13125414
  Solvation  Ediel_sol  =         0.00000000
  ---------------------------------------------------
  free energy    TOTEN  =        -3.90113639 eV

  energy without entropy =       -3.90013411  energy(sigma->0) =       -3.90063525


--------------------------------------------------------------------------------------------------------




----------------------------------------- Iteration    1(   2)  ---------------------------------------


     EDDAV:  cpu time    0.6449: real time    0.6452
       DOS:  cpu time    0.0000: real time    0.0005
    --------------------------------------------
      LOOP:  cpu time    0.6449: real time    0.6503

 eigenvalue-minimisations  :  5664
 total energy-change (2. order) :-0.6686499E+01  (-0.6603157E+01)
 number of electron       8.0000000 magnetization 
 augmentation part        8.0000000 magnetization 

 Free energy of the ion-electron system (eV)
  ---------------------------------------------------
  alpha Z        PSCENC =         2.76051321
  Ewald energy   TEWEN  =      -213.98274834
  -Hartree energ DENC   =       -14.16697611
  -exchange      EXHF   =         0.00000000
  -V(xc)+E(xc)   XCENC  =       -19.33178534
  PAW double counting   =        65.95520812      -30.76852678
  entropy T*S    EENTRO =        -0.00000000
  eigenvalues    EBANDS =        -7.18457389
  atomic energy  EATOM  =       206.13125414
  Solvation  Ediel_sol  =         0.00000000
  ---------------------------------------------------
  free energy    TOTEN  =       -10.58763498 eV

  energy without entropy =      -10.58763498  energy(sigma->0) =      -10.58763498


--------------------------------------------------------------------------------------------------------




----------------------------------------- Iteration    1(   3)  ---------------------------------------


     EDDAV:  cpu time    0.5049: real time    0.5051
       DOS:  cpu time    0.0000: real time    0.0006
    --------------------------------------------
      LOOP:  cpu time    0.5059: real time    0.5142

 eigenvalue-minimisations  :  4528
 total energy-change (2. order) :-0.4232153E-01  (-0.4232153E-01)
 number of electron       8.0000000 magnetization 
 augmentation part        8.0000000 magnetization 

 Free energy of the ion-electron system (eV)
  ---------------------------------------------------
  alpha Z        PSCENC =         2.76051321
  Ewald energy   TEWEN  =      -213.98274834
  -Hartree energ DENC   =       -14.16697611
  -exchange      EXHF   =         0.00000000
  -V(xc)+E(xc)   XCENC  =       -19.33178534
  PAW double counting   =        65.95520812      -30.76852678
  entropy T*S    EENTRO =        -0.00000000
  eigenvalues    EBANDS =        -7.22689542
  atomic energy  EATOM  =       206.13125414
  Solvation  Ediel_sol  =         0.00000000
  ---------------------------------------------------
  free energy    TOTEN  =       -10.62995651 eV

  energy without entropy =      -10.62995651  energy(sigma->0) =      -10.62995651


--------------------------------------------------------------------------------------------------------




----------------------------------------- Iteration    1(   4)  ---------------------------------------


     EDDAV:  cpu time    0.9299: real time    0.9300
       DOS:  cpu time    0.0000: real time    0.0005
    --------------------------------------------
      LOOP:  cpu time    0.9309: real time    0.9352

 eigenvalue-minimisations  :  7088
 total energy-change (2. order) :-0.1167135E-03  (-0.1167134E-03)
 number of electron       8.0000000 magnetization 
 augmentation part        8.0000000 magnetization 

 Free energy of the ion-electron system (eV)
  ---------------------------------------------------
  alpha Z        PSCENC =         2.76051321
  Ewald energy   TEWEN  =      -213.98274834
  -Hartree energ DENC   =       -14.16697611
  -exchange      EXHF   =         0.00000000
  -V(xc)+E(xc)   XCENC  =       -19.33178534
  PAW double counting   =        65.95520812      -30.76852678
  entropy T*S    EENTRO =        -0.00000000
  eigenvalues    EBANDS =        -7.22701213
  atomic energy  EATOM  =       206.13125414
  Solvation  Ediel_sol  =         0.00000000
  ---------------------------------------------------
  free energy    TOTEN  =       -10.63007323 eV

  energy without entropy =      -10.63007323  energy(sigma->0) =      -10.63007323


--------------------------------------------------------------------------------------------------------




----------------------------------------- Iteration    1(   5)  ---------------------------------------


     EDDAV:  cpu time    0.4909: real time    0.4911
       DOS:  cpu time    0.0000: real time    0.0005
    CHARGE:  cpu time    0.0150: real time    0.0149
    MIXING:  cpu time    0.0010: real time    0.0004
    --------------------------------------------
      LOOP:  cpu time    0.5079: real time    0.5155

 eigenvalue-minimisations  :  4448
 total energy-change (2. order) :-0.5173774E-08  (-0.5163275E-08)
 number of electron       8.0000008 magnetization 
 augmentation part       -0.4661358 magnetization 

 Broyden mixing:
  rms(total) = 0.25427E+00    rms(broyden)= 0.25427E+00
  rms(prec ) = 0.69811E+00
  weight for this iteration     100.00

 Free energy of the ion-electron system (eV)
  ---------------------------------------------------
  alpha Z        PSCENC =         2.76051321
  Ewald energy   TEWEN  =      -213.98274834
  -Hartree energ DENC   =       -14.16697611
  -exchange      EXHF   =         0.00000000
  -V(xc)+E(xc)   XCENC  =       -19.33178534
  PAW double counting   =        65.95520812      -30.76852678
  entropy T*S    EENTRO =        -0.00000000
  eigenvalues    EBANDS =        -7.22701214
  atomic energy  EATOM  =       206.13125414
  Solvation  Ediel_sol  =         0.00000000
  ---------------------------------------------------
  free energy    TOTEN  =       -10.63007323 eV

  energy without entropy =      -10.63007323  energy(sigma->0) =      -10.63007323


--------------------------------------------------------------------------------------------------------




----------------------------------------- Iteration    1(   6)  ---------------------------------------


    POTLOK:  cpu time    0.0040: real time    0.0036
    SETDIJ:  cpu time    0.0010: real time    0.0014
     EDDAV:  cpu time    0.6499: real time    0.6499
       DOS:  cpu time    0.0010: real time    0.0006
    CHARGE:  cpu time    0.0140: real time    0.0147
    MIXING:  cpu time    0.0010: real time    0.0003
    --------------------------------------------
      LOOP:  cpu time    0.6709: real time    0.6752

 eigenvalue-minimisations  :  5424
 total energy-change (2. order) : 0.5770611E-01  (-0.3175210E-02)
 number of electron       8.0000008 magnetization 
 augmentation part       -0.4630948 magnetization 

 Broyden mixing:
  rms(total) = 0.15471E+00    rms(broyden)= 0.15471E+00
  rms(prec ) = 0.42518E+00
  weight for this iteration     100.00

 eigenvalues of (default mixing * dielectric matrix)
  average eigenvalue GAMMA=   2.5371
  2.5371

 Free energy of the ion-electron system (eV)
  ---------------------------------------------------
  alpha Z        PSCENC =         2.76051321
  Ewald energy   TEWEN  =      -213.98274834
  -Hartree energ DENC   =       -15.31471617
  -exchange      EXHF   =         0.00000000
  -V(xc)+E(xc)   XCENC  =       -19.15479010
  PAW double counting   =        67.70842403      -32.56717820
  entropy T*S    EENTRO =        -0.00000000
  eigenvalues    EBANDS =        -6.15312568
  atomic energy  EATOM  =       206.13125414
  Solvation  Ediel_sol  =         0.00000000
  ---------------------------------------------------
  free energy    TOTEN  =       -10.57236712 eV

  energy without entropy =      -10.57236712  energy(sigma->0) =      -10.57236712


--------------------------------------------------------------------------------------------------------




----------------------------------------- Iteration    1(   7)  ---------------------------------------


    POTLOK:  cpu time    0.0030: real time    0.0036
    SETDIJ:  cpu time    0.0010: real time    0.0013
     EDDAV:  cpu time    0.7089: real time    0.7091
       DOS:  cpu time    0.0010: real time    0.0006
    CHARGE:  cpu time    0.0150: real time    0.0147
    MIXING:  cpu time    0.0000: real time    0.0003
    --------------------------------------------
      LOOP:  cpu time    0.7299: real time    0.7381

 eigenvalue-minimisations  :  5824
 total energy-change (2. order) : 0.3165041E-01  (-0.7272522E-02)
 number of electron       8.0000008 magnetization 
 augmentation part       -0.4596233 magnetization 

 Broyden mixing:
  rms(total) = 0.11131E-01    rms(broyden)= 0.11131E-01
  rms(prec ) = 0.27994E-01
  weight for this iteration     100.00

 eigenvalues of (default mixing * dielectric matrix)
  average eigenvalue GAMMA=   2.5110
  2.5110  2.5110

 Free energy of the ion-electron system (eV)
  ---------------------------------------------------
  alpha Z        PSCENC =         2.76051321
  Ewald energy   TEWEN  =      -213.98274834
  -Hartree energ DENC   =       -17.33700165
  -exchange      EXHF   =         0.00000000
  -V(xc)+E(xc)   XCENC  =       -18.83646853
  PAW double counting   =        69.88753532      -34.80165694
  entropy T*S    EENTRO =        -0.00000000
  eigenvalues    EBANDS =        -4.36214393
  atomic energy  EATOM  =       206.13125414
  Solvation  Ediel_sol  =         0.00000000
  ---------------------------------------------------
  free energy    TOTEN  =       -10.54071671 eV

  energy without entropy =      -10.54071671  energy(sigma->0) =      -10.54071671


--------------------------------------------------------------------------------------------------------




----------------------------------------- Iteration    1(   8)  ---------------------------------------


    POTLOK:  cpu time    0.0030: real time    0.0037
    SETDIJ:  cpu time    0.0010: real time    0.0013
     EDDAV:  cpu time    0.5359: real time    0.5358
       DOS:  cpu time    0.0010: real time    0.0006
    CHARGE:  cpu time    0.0140: real time    0.0147
    MIXING:  cpu time    0.0010: real time    0.0003
    --------------------------------------------
      LOOP:  cpu time    0.5569: real time    0.5608

 eigenvalue-minimisations  :  4752
 total energy-change (2. order) :-0.1347521E-02  (-0.2378423E-03)
 number of electron       8.0000008 magnetization 
 augmentation part       -0.4599312 magnetization 

 Broyden mixing:
  rms(total) = 0.27545E-02    rms(broyden)= 0.27545E-02
  rms(prec ) = 0.87750E-02
  weight for this iteration     100.00

 eigenvalues of (default mixing * dielectric matrix)
  average eigenvalue GAMMA=   2.1767
  1.1339  2.3980  2.9984

 Free energy of the ion-electron system (eV)
  ---------------------------------------------------
  alpha Z        PSCENC =         2.76051321
  Ewald energy   TEWEN  =      -213.98274834
  -Hartree energ DENC   =       -17.31161921
  -exchange      EXHF   =         0.00000000
  -V(xc)+E(xc)   XCENC  =       -18.83742315
  PAW double counting   =        69.19597105      -34.09073875
  entropy T*S    EENTRO =        -0.00000000
  eigenvalues    EBANDS =        -4.40727318
  atomic energy  EATOM  =       206.13125414
  Solvation  Ediel_sol  =         0.00000000
  ---------------------------------------------------
  free energy    TOTEN  =       -10.54206423 eV

  energy without entropy =      -10.54206423  energy(sigma->0) =      -10.54206423


--------------------------------------------------------------------------------------------------------




----------------------------------------- Iteration    1(   9)  ---------------------------------------


    POTLOK:  cpu time    0.0030: real time    0.0036
    SETDIJ:  cpu time    0.0010: real time    0.0013
     EDDAV:  cpu time    0.8159: real time    0.8153
       DOS:  cpu time    0.0000: real time    0.0006
    CHARGE:  cpu time    0.0150: real time    0.0147
    MIXING:  cpu time    0.0000: real time    0.0002
    --------------------------------------------
      LOOP:  cpu time    0.8359: real time    0.8451

 eigenvalue-minimisations  :  6464
 total energy-change (2. order) :-0.1604401E-03  (-0.1834621E-04)
 number of electron       8.0000008 magnetization 
 augmentation part       -0.4599934 magnetization 

 Broyden mixing:
  rms(total) = 0.12141E-02    rms(broyden)= 0.12141E-02
  rms(prec ) = 0.31737E-02
  weight for this iteration     100.00

 eigenvalues of (default mixing * dielectric matrix)
  average eigenvalue GAMMA=   2.2594
  0.9516  3.0918  2.4971  2.4971

 Free energy of the ion-electron system (eV)
  ---------------------------------------------------
  alpha Z        PSCENC =         2.76051321
  Ewald energy   TEWEN  =      -213.98274834
  -Hartree energ DENC   =       -17.35567870
  -exchange      EXHF   =         0.00000000
  -V(xc)+E(xc)   XCENC  =       -18.83037920
  PAW double counting   =        69.09843224      -33.99041101
  entropy T*S    EENTRO =        -0.00000000
  eigenvalues    EBANDS =        -4.37320701
  atomic energy  EATOM  =       206.13125414
  Solvation  Ediel_sol  =         0.00000000
  ---------------------------------------------------
  free energy    TOTEN  =       -10.54222467 eV

  energy without entropy =      -10.54222467  energy(sigma->0) =      -10.54222467


--------------------------------------------------------------------------------------------------------




----------------------------------------- Iteration    1(  10)  ---------------------------------------


    POTLOK:  cpu time    0.0040: real time    0.0036
    SETDIJ:  cpu time    0.0000: real time    0.0013
     EDDAV:  cpu time    0.5749: real time    0.5741
       DOS:  cpu time    0.0010: real time    0.0006
    CHARGE:  cpu time    0.0150: real time    0.0147
    MIXING:  cpu time    0.0000: real time    0.0003
    --------------------------------------------
      LOOP:  cpu time    0.5959: real time    0.5990

 eigenvalue-minimisations  :  4960
 total energy-change (2. order) :-0.1323447E-04  (-0.2052823E-05)
 number of electron       8.0000008 magnetization 
 augmentation part       -0.4598827 magnetization 

 Broyden mixing:
  rms(total) = 0.25450E-03    rms(broyden)= 0.25450E-03
  rms(prec ) = 0.70255E-03
  weight for this iteration     100.00

 eigenvalues of (default mixing * dielectric matrix)
  average eigenvalue GAMMA=   2.0921
  3.3678  2.6880  2.2322  0.9466  1.2261

 Free energy of the ion-electron system (eV)
  ---------------------------------------------------
  alpha Z        PSCENC =         2.76051321
  Ewald energy   TEWEN  =      -213.98274834
  -Hartree energ DENC   =       -17.36921945
  -exchange      EXHF   =         0.00000000
  -V(xc)+E(xc)   XCENC  =       -18.82978001
  PAW double counting   =        69.16532893      -34.05948210
  entropy T*S    EENTRO =        -0.00000000
  eigenvalues    EBANDS =        -4.35810429
  atomic energy  EATOM  =       206.13125414
  Solvation  Ediel_sol  =         0.00000000
  ---------------------------------------------------
  free energy    TOTEN  =       -10.54223790 eV

  energy without entropy =      -10.54223790  energy(sigma->0) =      -10.54223790


--------------------------------------------------------------------------------------------------------




----------------------------------------- Iteration    1(  11)  ---------------------------------------


    POTLOK:  cpu time    0.0040: real time    0.0037
    SETDIJ:  cpu time    0.0010: real time    0.0013
     EDDAV:  cpu time    0.8329: real time    0.8324
       DOS:  cpu time    0.0000: real time    0.0005
    CHARGE:  cpu time    0.0150: real time    0.0147
    MIXING:  cpu time    0.0000: real time    0.0003
    --------------------------------------------
      LOOP:  cpu time    0.8529: real time    0.8614

 eigenvalue-minimisations  :  6496
 total energy-change (2. order) : 0.1005499E-05  (-0.1350631E-06)
 number of electron       8.0000008 magnetization 
 augmentation part       -0.4599035 magnetization 

 Broyden mixing:
  rms(total) = 0.44229E-04    rms(broyden)= 0.44229E-04
  rms(prec ) = 0.74703E-04
  weight for this iteration     100.00

 eigenvalues of (default mixing * dielectric matrix)
  average eigenvalue GAMMA=   2.1466
  3.3395  2.8220  2.5238  2.2298  0.9544  1.0100

 Free energy of the ion-electron system (eV)
  ---------------------------------------------------
  alpha Z        PSCENC =         2.76051321
  Ewald energy   TEWEN  =      -213.98274834
  -Hartree energ DENC   =       -17.36663265
  -exchange      EXHF   =         0.00000000
  -V(xc)+E(xc)   XCENC  =       -18.83000882
  PAW double counting   =        69.14242993      -34.03587959
  entropy T*S    EENTRO =        -0.00000000
  eigenvalues    EBANDS =        -4.36116479
  atomic energy  EATOM  =       206.13125414
  Solvation  Ediel_sol  =         0.00000000
  ---------------------------------------------------
  free energy    TOTEN  =       -10.54223690 eV

  energy without entropy =      -10.54223690  energy(sigma->0) =      -10.54223690


--------------------------------------------------------------------------------------------------------




----------------------------------------- Iteration    1(  12)  ---------------------------------------


    POTLOK:  cpu time    0.0040: real time    0.0036
    SETDIJ:  cpu time    0.0010: real time    0.0013
     EDDAV:  cpu time    0.3929: real time    0.3927
       DOS:  cpu time    0.0000: real time    0.0005
    --------------------------------------------
      LOOP:  cpu time    0.3989: real time    0.4029

 eigenvalue-minimisations  :  3440
 total energy-change (2. order) : 0.7069141E-07  (-0.4690533E-08)
 number of electron       8.0000008 magnetization 
 augmentation part       -0.4599035 magnetization 

 Free energy of the ion-electron system (eV)
  ---------------------------------------------------
  alpha Z        PSCENC =         2.76051321
  Ewald energy   TEWEN  =      -213.98274834
  -Hartree energ DENC   =       -17.36685437
  -exchange      EXHF   =         0.00000000
  -V(xc)+E(xc)   XCENC  =       -18.82999180
  PAW double counting   =        69.14201598      -34.03540065
  entropy T*S    EENTRO =        -0.00000000
  eigenvalues    EBANDS =        -4.36102500
  atomic energy  EATOM  =       206.13125414
  Solvation  Ediel_sol  =         0.00000000
  ---------------------------------------------------
  free energy    TOTEN  =       -10.54223683 eV

  energy without entropy =      -10.54223683  energy(sigma->0) =      -10.54223683


--------------------------------------------------------------------------------------------------------




 average (electrostatic) potential at core
  the test charge radii are     0.9892
  (the norm of the test charge is              1.0000)
       1 -85.3198       2 -85.3198
 
 
 
 E-fermi :   4.4532     XC(G=0):  -8.6541     alpha+bet : -9.8341


 k-point     1 :       0.0000    0.0000    0.0000
  band No.  band energies     occupation 
      1      -6.7137      2.00000
      2       4.0015      2.00000
      3       4.0015      2.00000
      4       4.0015      2.00000
      5       5.2600      0.00000
      6       6.4635      0.00000
      7       6.4635      0.00000
      8       6.4635      0.00000
      9      11.2330      0.00000
     10      11.6025      0.00000
     11      11.6025      0.00000
     12      14.6115      0.00000
     13      14.6115      0.00000
     14      14.6115      0.00000
     15      18.2657      0.00000
     16      24.8857      0.00000

 k-point     2 :       0.0667    0.0000    0.0000
  band No.  band energies     occupation 
      1      -6.6647      2.00000
      2       3.3217      2.00000
      3       3.9250      2.00000
      4       3.9250      2.00000
      5       5.6398      0.00000
      6       6.5765      0.00000
      7       6.5765      0.00000
      8       6.6843      0.00000
      9      11.4468      0.00000
     10      11.4468      0.00000
     11      11.4487      0.00000
     12      14.4231      0.00000
     13      14.9333      0.00000
     14      14.9333      0.00000
     15      18.6089      0.00000
     16      23.9915      0.00000

 k-point     3 :       0.1333    0.0000    0.0000
  band No.  band energies     occupation 
      1      -6.5191      2.00000
      2       2.2342      2.00000
      3       3.7397      2.00000
      4       3.7397      2.00000
      5       5.6849      0.00000
      6       6.8515      0.00000
      7       6.8515      0.00000
      8       7.5343      0.00000
      9      11.1643      0.00000
     10      11.1643      0.00000
     11      11.9922      0.00000
     12      14.0841      0.00000
     13      15.7268      0.00000
     14      15.7268      0.00000
     15      19.4391      0.00000
     16      22.7095      0.00000

 k-point     4 :       0.2000    0.0000    0.0000
  band No.  band energies     occupation 
      1      -6.2809      2.00000
      2       1.1337      2.00000
      3       3.5204      2.00000
      4       3.5204      2.00000
      5       5.4893      0.00000
      6       7.1523      0.00000
      7       7.1523      0.00000
      8       8.6152      0.00000
      9      11.0201      0.00000
     10      11.0201      0.00000
     11      12.4401      0.00000
     12      14.1348      0.00000
     13      16.7444      0.00000
     14      16.7444      0.00000
     15      20.2078      0.00000
     16      21.2224      0.00000

 k-point     5 :       0.2667    0.0000    0.0000
  band No.  band energies     occupation 
      1      -5.9594      2.00000
      2       0.0930      2.00000
      3       3.3165      2.00000
      4       3.3165      2.00000
      5       5.2669      0.00000
      6       7.3543      0.00000
      7       7.3543      0.00000
      8       9.7191      0.00000
      9      11.1833      0.00000
     10      11.1833      0.00000
     11      12.3729      0.00000
     12      14.9731      0.00000
     13      17.6428      0.00000
     14      17.6428      0.00000
     15      19.5809      0.00000
     16      19.9928      0.00000

 k-point     6 :       0.3333    0.0000    0.0000
  band No.  band energies     occupation 
      1      -5.5750      2.00000
      2      -0.8440      2.00000
      3       3.1524      2.00000
      4       3.1524      2.00000
      5       5.0773      0.00000
      6       7.4173      0.00000
      7       7.4174      0.00000
      8      10.7516      0.00000
      9      11.7043      0.00000
     10      11.7043      0.00000
     11      12.2267      0.00000
     12      15.9353      0.00000
     13      17.2861      0.00000
     14      17.2862      0.00000
     15      18.7392      0.00000
     16      20.2123      0.00000

 k-point     7 :       0.4000    0.0000    0.0000
  band No.  band energies     occupation 
      1      -5.1765      2.00000
      2      -1.6163      2.00000
      3       3.0394      2.00000
      4       3.0394      2.00000
      5       4.9433      0.00000
      6       7.3991      0.00000
      7       7.3991      0.00000
      8      11.3454      0.00000
      9      12.5247      0.00000
     10      12.5247      0.00000
     11      12.5854      0.00000
     12      15.8352      0.00000
     13      16.0507      0.00000
     14      16.0507      0.00000
     15      19.1541      0.00000
     16      21.4956      0.00000

 k-point     8 :       0.4667    0.0000    0.0000
  band No.  band energies     occupation 
      1      -4.8837      2.00000
      2      -2.0974      2.00000
      3       2.9821      2.00000
      4       2.9822      2.00000
      5       4.8747      0.00000
      6       7.3715      0.00000
      7       7.3715      0.00000
      8      11.4099      0.00000
      9      13.5451      0.00000
     10      13.5587      0.00000
     11      13.5587      0.00000
     12      14.7670      0.00000
     13      14.7670      0.00000
     14      14.8773      0.00000
     15      20.6134      0.00000
     16      22.5618      0.00000

 k-point     9 :       0.0667    0.0667    0.0000
  band No.  band energies     occupation 
      1      -6.6483      2.00000
      2       3.3241      2.00000
      3       3.7737      2.00000
      4       3.7737      2.00000
      5       5.9201      0.00000
      6       6.3131      0.00000
      7       6.7724      0.00000
      8       6.7724      0.00000
      9      11.1389      0.00000
     10      11.5201      0.00000
     11      11.6776      0.00000
     12      14.7310      0.00000
     13      14.7310      0.00000
     14      14.9328      0.00000
     15      18.7416      0.00000
     16      23.7865      0.00000

 k-point    10 :       0.1333    0.0667    0.0000
  band No.  band energies     occupation 
      1      -6.5347      2.00000
      2       2.4846      2.00000
      3       3.5475      2.00000
      4       3.6407      2.00000
      5       6.1134      0.00000
      6       6.3694      0.00000
      7       7.1044      0.00000
      8       7.3789      0.00000
      9      10.7582      0.00000
     10      11.6239      0.00000
     11      11.9652      0.00000
     12      14.4563      0.00000
     13      15.1537      0.00000
     14      15.6889      0.00000
     15      19.4388      0.00000
     16      22.6157      0.00000

 k-point    11 :       0.2000    0.0667    0.0000
  band No.  band energies     occupation 
      1      -6.3268      2.00000
[...]
      5       5.4341      0.00000
      6       6.0949      0.00000
      7      11.3727      0.00000
      8      11.4558      0.00000
      9      12.9883      0.00000
     10      13.5839      0.00000
     11      15.2941      0.00000
     12      16.0052      0.00000
     13      17.1846      0.00000
     14      17.3811      0.00000
     15      19.8754      0.00000
     16      20.2022      0.00000

 k-point   101 :       0.4000    0.2667    0.1333
  band No.  band energies     occupation 
      1      -5.4586      2.00000
      2      -0.4355      2.00000
      3       1.6414      2.00000
      4       2.6762      2.00000
      5       6.4255      0.00000
      6       7.1291      0.00000
      7       8.1719      0.00000
      8       9.1769      0.00000
      9      11.2647      0.00000
     10      13.5232      0.00000
     11      13.9601      0.00000
     12      15.5786      0.00000
     13      16.6556      0.00000
     14      17.8598      0.00000
     15      18.3293      0.00000
     16      20.5146      0.00000

 k-point   102 :       0.4667    0.2667    0.1333
  band No.  band energies     occupation 
      1      -5.0769      2.00000
      2      -1.0865      2.00000
      3       1.2926      2.00000
      4       2.4589      2.00000
      5       6.6589      0.00000
      6       7.2910      0.00000
      7       8.1795      0.00000
      8       9.5264      0.00000
      9      11.7491      0.00000
     10      13.3129      0.00000
     11      14.6460      0.00000
     12      15.6438      0.00000
     13      16.8483      0.00000
     14      17.6654      0.00000
     15      18.9396      0.00000
     16      20.4385      0.00000

 k-point   103 :      -0.4667    0.2667    0.1333
  band No.  band energies     occupation 
      1      -4.6739      2.00000
      2      -1.7091      2.00000
      3       1.0944      2.00000
      4       2.2722      2.00000
      5       6.6852      0.00000
      6       7.3186      0.00000
      7       8.7590      0.00000
      8       9.6691      0.00000
      9      12.1932      0.00000
     10      12.6090      0.00000
     11      15.1956      0.00000
     12      15.7688      0.00000
     13      16.6368      0.00000
     14      18.1553      0.00000
     15      19.7630      0.00000
     16      20.2247      0.00000

 k-point   104 :      -0.4000    0.2667    0.1333
  band No.  band energies     occupation 
      1      -4.3669      2.00000
      2      -2.1375      2.00000
      3       1.0069      2.00000
      4       2.1672      2.00000
      5       6.6839      0.00000
      6       7.2491      0.00000
      7       9.4150      0.00000
      8       9.9977      0.00000
      9      11.0501      0.00000
     10      13.5794      0.00000
     11      14.7292      0.00000
     12      15.4757      0.00000
     13      17.2667      0.00000
     14      18.6529      0.00000
     15      19.5816      0.00000
     16      20.6995      0.00000

 k-point   105 :       0.4667    0.3333    0.1333
  band No.  band energies     occupation 
      1      -4.9207      2.00000
      2      -1.2213      2.00000
      3       1.3339      2.00000
      4       2.0799      2.00000
      5       6.1975      0.00000
      6       7.0296      0.00000
      7       8.4548      0.00000
      8      10.3052      0.00000
      9      12.2987      0.00000
     10      13.5889      0.00000
     11      14.7079      0.00000
     12      16.2804      0.00000
     13      16.7043      0.00000
     14      17.4228      0.00000
     15      18.6953      0.00000
     16      19.8893      0.00000

 k-point   106 :      -0.4667    0.3333    0.1333
  band No.  band energies     occupation 
      1      -4.5158      2.00000
      2      -1.7671      2.00000
      3       1.0231      2.00000
      4       1.8835      2.00000
      5       6.4822      0.00000
      6       7.5100      0.00000
      7       8.2255      0.00000
      8      10.6196      0.00000
      9      12.3959      0.00000
     10      12.9459      0.00000
     11      15.6590      0.00000
     12      15.9937      0.00000
     13      17.0868      0.00000
     14      17.4972      0.00000
     15      19.2570      0.00000
     16      20.2479      0.00000

 k-point   107 :      -0.4000    0.3333    0.1333
  band No.  band energies     occupation 
      1      -4.1504      2.00000
      2      -2.2212      2.00000
      3       0.8047      2.00000
      4       1.7914      2.00000
      5       6.5988      0.00000
      6       7.9626      0.00000
      7       8.4887      0.00000
      8      10.5519      0.00000
      9      11.2778      0.00000
     10      13.8548      0.00000
     11      14.8191      0.00000
     12      16.3688      0.00000
     13      17.5085      0.00000
     14      18.4624      0.00000
     15      19.7132      0.00000
     16      20.6467      0.00000

 k-point   108 :      -0.3333    0.3333    0.1333
  band No.  band energies     occupation 
      1      -4.0375      2.00000
      2      -2.3529      2.00000
      3       0.6894      2.00000
      4       1.8261      2.00000
      5       6.7357      0.00000
      6       7.8085      0.00000
      7       9.5691      0.00000
      8       9.7741      0.00000
      9      10.8516      0.00000
     10      13.5348      0.00000
     11      15.1334      0.00000
     12      16.3772      0.00000
     13      18.1928      0.00000
     14      18.9160      0.00000
     15      19.4277      0.00000
     16      19.9766      0.00000

 k-point   109 :      -0.2667    0.3333    0.1333
  band No.  band energies     occupation 
      1      -4.2905      2.00000
      2      -2.0513      2.00000
      3       0.7056      2.00000
      4       1.9738      2.00000
      5       6.9196      0.00000
      6       7.6674      0.00000
      7       8.7539      0.00000
      8      10.4853      0.00000
      9      11.0171      0.00000
     10      12.5603      0.00000
     11      16.1199      0.00000
     12      16.3839      0.00000
     13      17.8273      0.00000
     14      17.8824      0.00000
     15      19.1780      0.00000
     16      20.3219      0.00000

 k-point   110 :      -0.2000    0.3333    0.1333
  band No.  band energies     occupation 
      1      -4.6867      2.00000
      2      -1.5667      2.00000
      3       0.8951      2.00000
      4       2.2028      2.00000
      5       7.1124      0.00000
      6       7.3293      0.00000
      7       8.1639      0.00000
      8      10.2017      0.00000
      9      11.9220      0.00000
     10      12.1930      0.00000
     11      15.8325      0.00000
     12      16.4968      0.00000
     13      16.7804      0.00000
     14      17.6448      0.00000
     15      19.1389      0.00000
     16      20.3362      0.00000

 k-point   111 :      -0.4667    0.4000    0.1333
  band No.  band energies     occupation 
      1      -4.2870      2.00000
      2      -2.0168      2.00000
      3       1.1641      2.00000
      4       1.6051      2.00000
      5       6.0853      0.00000
      6       6.6047      0.00000
      7       9.2820      0.00000
      8      11.3487      0.00000
      9      12.7288      0.00000
     10      13.3858      0.00000
     11      15.4064      0.00000
     12      16.3048      0.00000
     13      16.7644      0.00000
     14      17.8862      0.00000
     15      19.0930      0.00000
     16      19.6226      0.00000

 k-point   112 :      -0.4000    0.4000    0.1333
  band No.  band energies     occupation 
      1      -3.8863      2.00000
      2      -2.4556      2.00000
      3       0.8801      2.00000
      4       1.4770      2.00000
      5       6.3535      0.00000
      6       7.2669      0.00000
      7       9.0539      0.00000
      8      10.9962      0.00000
      9      12.0805      0.00000
     10      13.9567      0.00000
     11      14.9117      0.00000
     12      16.7439      0.00000
     13      17.5628      0.00000
     14      18.1040      0.00000
     15      19.5838      0.00000
     16      20.1395      0.00000

 k-point   113 :      -0.3333    0.4000    0.1333
  band No.  band energies     occupation 
      1      -3.6779      2.00000
      2      -2.6666      2.00000
      3       0.6385      2.00000
      4       1.5317      2.00000
      5       6.5008      0.00000
      6       8.3284      0.00000
      7       8.8492      0.00000
      8       9.8806      0.00000
      9      11.9087      0.00000
     10      13.5285      0.00000
     11      15.3025      0.00000
     12      16.9838      0.00000
     13      17.9455      0.00000
     14      18.9007      0.00000
     15      19.6516      0.00000
     16      20.3420      0.00000

 k-point   114 :      -0.2667    0.4000    0.1333
  band No.  band energies     occupation 
      1      -3.9017      2.00000
      2      -2.4318      2.00000
      3       0.5583      2.00000
      4       1.7102      2.00000
      5       6.6994      0.00000
      6       8.5322      0.00000
      7       8.9351      0.00000
      8       9.5373      0.00000
      9      11.4997      0.00000
     10      12.7998      0.00000
     11      16.0452      0.00000
     12      17.2748      0.00000
     13      17.5432      0.00000
     14      18.7256      0.00000
     15      19.2262      0.00000
     16      20.3881      0.00000

 k-point   115 :      -0.4000    0.4667    0.1333
  band No.  band energies     occupation 
      1      -3.5755      2.00000
      2      -2.8097      2.00000
      3       1.1460      2.00000
      4       1.2910      2.00000
      5       6.1094      0.00000
      6       6.2820      0.00000
      7      10.2407      0.00000
      8      11.2167      0.00000
      9      12.9410      0.00000
     10      13.8609      0.00000
     11      15.0605      0.00000
     12      15.9740      0.00000
     13      17.4219      0.00000
     14      18.6170      0.00000
     15      19.2124      0.00000
     16      20.1639      0.00000

 k-point   116 :      -0.3333    0.4667    0.1333
  band No.  band energies     occupation 
      1      -3.3451      2.00000
      2      -3.0146      2.00000
      3       0.8421      2.00000
      4       1.3256      2.00000
      5       6.3095      0.00000
      6       7.1702      0.00000
      7       9.9723      0.00000
      8      10.0929      0.00000
      9      12.8525      0.00000
     10      13.5713      0.00000
     11      15.3021      0.00000
     12      16.1257      0.00000
     13      18.4931      0.00000
     14      18.9769      0.00000
     15      19.4061      0.00000
     16      19.6859      0.00000

 k-point   117 :      -0.4000    0.4000    0.2000
  band No.  band energies     occupation 
      1      -4.1115      2.00000
      2      -2.1984      2.00000
      3       0.7866      2.00000
      4       1.5948      2.00000
      5       7.2272      0.00000
      6       7.6220      0.00000
      7       7.9761      0.00000
      8      10.8326      0.00000
      9      11.6820      0.00000
     10      13.1240      0.00000
     11      15.7816      0.00000
     12      16.9845      0.00000
     13      17.1956      0.00000
     14      18.0894      0.00000
     15      18.8719      0.00000
     16      20.8985      0.00000

 k-point   118 :      -0.3333    0.4000    0.2000
  band No.  band energies     occupation 
      1      -3.7686      2.00000
      2      -2.5586      2.00000
      3       0.6799      2.00000
      4       1.4207      2.00000
      5       7.4963      0.00000
      6       7.7198      0.00000
      7       8.5184      0.00000
      8       9.6743      0.00000
      9      11.9205      0.00000
     10      13.7556      0.00000
     11      15.1097      0.00000
     12      16.8991      0.00000
     13      17.7983      0.00000
     14      19.0576      0.00000
     15      19.5585      0.00000
     16      20.6385      0.00000

 k-point   119 :      -0.3333    0.4667    0.2000
  band No.  band energies     occupation 
      1      -3.4863      2.00000
      2      -2.8406      2.00000
      3       0.8608      2.00000
      4       1.1319      2.00000
      5       7.2436      0.00000
      6       7.3906      0.00000
      7       8.8153      0.00000
      8       9.8254      0.00000
      9      12.8275      0.00000
     10      13.7744      0.00000
     11      15.1795      0.00000
     12      16.0970      0.00000
     13      18.4688      0.00000
     14      19.3320      0.00000
     15      19.4731      0.00000
     16      20.3508      0.00000

 k-point   120 :      -0.2667    0.4667    0.2000
  band No.  band energies     occupation 
      1      -3.4032      2.00000
      2      -2.9120      2.00000
      3       0.7463      2.00000
      4       1.1457      2.00000
      5       7.4755      0.00000
      6       8.4341      0.00000
      7       8.5594      0.00000
      8       8.6895      0.00000
      9      12.8172      0.00000
     10      13.6718      0.00000
     11      15.2600      0.00000
     12      16.1624      0.00000
     13      18.5929      0.00000
     14      19.3835      0.00000
     15      20.1841      0.00000
     16      20.3778      0.00000


--------------------------------------------------------------------------------------------------------


 soft charge-density along one line, spin component           1
         0         1         2         3         4         5         6         7         8         9
 total charge-density along one line
 
 pseudopotential strength for first ion, spin component:           1
 18.626   0.001  -0.000  -0.000  -0.000   0.000   0.000   0.000
  0.001   0.006   0.000   0.000   0.000  -0.000  -0.000  -0.000
 -0.000   0.000   4.200  -0.000  -0.000  -0.003   0.000   0.000
 -0.000   0.000  -0.000   4.200  -0.000   0.000  -0.003   0.000
 -0.000   0.000  -0.000  -0.000   4.200   0.000   0.000  -0.003
  0.000  -0.000  -0.003   0.000   0.000   0.005  -0.000  -0.000
  0.000  -0.000   0.000  -0.003   0.000  -0.000   0.005  -0.000
  0.000  -0.000   0.000   0.000  -0.003  -0.000  -0.000   0.005
 total augmentation occupancy for first ion, spin component:           1
  1.546  -0.517   0.000   0.000  -0.000   0.000   0.000   0.000
 -0.517   0.476   0.000   0.000   0.000   0.000   0.000  -0.000
 -0.000  -0.000   0.906  -0.000  -0.000  -0.426   0.000  -0.000
  0.000   0.000  -0.000   0.906  -0.000  -0.000  -0.426  -0.000
  0.000   0.000   0.000   0.000   0.906   0.000  -0.000  -0.426
 -0.000   0.000  -0.426  -0.000  -0.000   0.238   0.000  -0.000
  0.000  -0.000  -0.000  -0.426   0.000   0.000   0.238   0.000
  0.000  -0.000  -0.000   0.000  -0.426   0.000  -0.000   0.238


------------------------ aborting loop because EDIFF is reached ----------------------------------------


    CHARGE:  cpu time    0.0150: real time    0.0143
    FORLOC:  cpu time    0.0000: real time    0.0001
    FORNL :  cpu time    0.0220: real time    0.0221
    STRESS:  cpu time    0.2620: real time    0.2611
    FORCOR:  cpu time    0.0030: real time    0.0036
    FORHAR:  cpu time    0.0010: real time    0.0009
    MIXING:  cpu time    0.0000: real time    0.0003
    OFIELD:  cpu time    0.0000: real time    0.0000

  FORCE on cell =-STRESS in cart. coord.  units (eV):
  Direction    XX          YY          ZZ          XY          YZ          ZX
  --------------------------------------------------------------------------------------
  Alpha Z     2.76051     2.76051     2.76051
  Ewald     -71.32761   -71.32761   -71.32761    -0.00000    -0.00000    -0.00000
  Hartree     5.78893     5.78893     5.78893     0.00000     0.00000     0.00000
  E(xc)     -24.32187   -24.32187   -24.32187    -0.00000    -0.00000    -0.00000
  Local     -32.22179   -32.22179   -32.22179     0.00003     0.00003     0.00003
  n-local    76.07934    77.58992    71.91627     1.89442    -1.06999     0.36707
  augment   -11.73718   -11.73718   -11.73718    -0.00002    -0.00002    -0.00002
  Kinetic    54.76696    53.48555    49.66383     3.59412    -0.96916     1.02999
  Fock        0.00000     0.00000     0.00000     0.00000     0.00000     0.00000
  -------------------------------------------------------------------------------------
  Total      -3.22506    -3.22506    -3.22506     0.00000    -0.00000     0.00000
  in kB    -105.93134  -105.93134  -105.93134     0.00000    -0.00000     0.00000
  external pressure =     -105.93 kB  Pullay stress =        0.00 kB


 VOLUME and BASIS-vectors are now :
 -----------------------------------------------------------------------------
  energy-cutoff  :      350.00
  volume of cell :       48.78
      direct lattice vectors                 reciprocal lattice vectors
     0.000000000  2.900000000  2.900000000    -0.172413793  0.172413793  0.172413793
     2.900000000  0.000000000  2.900000000     0.172413793 -0.172413793  0.172413793
     2.900000000  2.900000000  0.000000000     0.172413793  0.172413793 -0.172413793

  length of vectors
     4.101219331  4.101219331  4.101219331     0.298629450  0.298629450  0.298629450


 FORCES acting on ions
    electron-ion (+dipol)            ewald-force                    non-local-force                 convergence-correction
 -----------------------------------------------------------------------------------------------
   -.404E-06 -.404E-06 -.314E-06   0.103E-13 0.934E-14 0.112E-13   -.108E-15 -.590E-16 -.416E-16   0.819E-10 0.819E-10 0.819E-10
   0.404E-06 0.404E-06 0.314E-06   -.104E-13 -.931E-14 -.113E-13   -.170E-15 0.243E-16 0.208E-16   -.819E-10 -.819E-10 -.819E-10
 -----------------------------------------------------------------------------------------------
   0.142E-12 -.341E-14 -.382E-13   -.132E-15 0.271E-16 -.909E-16   -.278E-15 -.347E-16 -.208E-16   -.480E-15 -.995E-15 -.357E-15
 
 
 POSITION                                       TOTAL-FORCE (eV/Angst)
 -----------------------------------------------------------------------------------
      5.07500      5.07500      5.07500        -0.000000     -0.000000     -0.000000
      0.72500      0.72500      0.72500         0.000000      0.000000      0.000000
 -----------------------------------------------------------------------------------
    total drift:                                0.000000     -0.000000     -0.000000


--------------------------------------------------------------------------------------------------------



  FREE ENERGIE OF THE ION-ELECTRON SYSTEM (eV)
  ---------------------------------------------------
  free  energy   TOTEN  =       -10.54223683 eV

  energy  without entropy=      -10.54223683  energy(sigma->0) =      -10.54223683
 


--------------------------------------------------------------------------------------------------------


    POTLOK:  cpu time    0.0050: real time    0.0052


--------------------------------------------------------------------------------------------------------


 writing wavefunctions
     LOOP+:  cpu time    8.1688: real time    8.2824
    4ORBIT:  cpu time    0.0000: real time    0.0000

 total amount of memory used by VASP on root node    38041. kBytes
========================================================================

   base      :      30000. kBytes
   nonl-proj :       5799. kBytes
   fftplans  :        198. kBytes
   grid      :        564. kBytes
   one-center:          6. kBytes
   wavefun   :       1474. kBytes
 
  
  
 General timing and accounting informations for this job:
 ========================================================
  
                  Total CPU time used (sec):        8.965
                            User time (sec):        8.816
                          System time (sec):        0.149
                         Elapsed time (sec):        9.533
  
                   Maximum memory used (kb):       83384.
                   Average memory used (kb):           0.
  
                          Minor page faults:        14584
                          Major page faults:            0
                 Voluntary context switches:         2965
