 vasp.5.4.1 24Jun15 (build May 02 2016 14:41:14) complex                        
  
 executed on           IFC91_ompi date 2022.05.07  11:09:58
 running on   16 total cores
 distrk:  each k-point on   16 cores,    1 groups
 distr:  one band on NCORES_PER_BAND=   1 cores,   16 groups


--------------------------------------------------------------------------------------------------------


 INCAR:
 POTCAR:   PAW_PBE Si 05Jan2001                   

 ----------------------------------------------------------------------------- 
|                                                                             |
|           W    W    AA    RRRRR   N    N  II  N    N   GGGG   !!!           |
|           W    W   A  A   R    R  NN   N  II  NN   N  G    G  !!!           |
|           W    W  A    A  R    R  N N  N  II  N N  N  G       !!!           |
|           W WW W  AAAAAA  RRRRR   N  N N  II  N  N N  G  GGG   !            |
|           WW  WW  A    A  R   R   N   NN  II  N   NN  G    G                |
|           W    W  A    A  R    R  N    N  II  N    N   GGGG   !!!           |
|                                                                             |
|      For optimal performance we recommend to set                            |
|        NCORE= 4 - approx SQRT( number of cores)                             |
|      NCORE specifies how many cores store one orbital (NPAR=cpu/NCORE).     |
|      This setting can  greatly improve the performance of VASP for DFT.     |
|      The default, NPAR=number of cores might be grossly inefficient         |
|      on modern multi-core architectures or massively parallel machines.     |
|      Do your own testing !!!!                                               |
|      Unfortunately you need to use the default for GW and RPA calculations. |
|      (for HF NCORE is supported but not extensively tested yet)             |
|                                                                             |
 ----------------------------------------------------------------------------- 

 POTCAR:   PAW_PBE Si 05Jan2001                   
   VRHFIN =Si: s2p2                                                             
   LEXCH  = PE                                                                  
   EATOM  =   103.0669 eV,    7.5752 Ry                                         
                                                                                
   TITEL  = PAW_PBE Si 05Jan2001                                                
   LULTRA =        F    use ultrasoft PP ?                                      
   IUNSCR =        1    unscreen: 0-lin 1-nonlin 2-no                           
   RPACOR =    1.500    partial core radius                                     
   POMASS =   28.085; ZVAL   =    4.000    mass and valenz                      
   RCORE  =    1.900    outmost cutoff radius                                   
   RWIGS  =    2.480; RWIGS  =    1.312    wigner-seitz radius (au A)           
   ENMAX  =  245.345; ENMIN  =  184.009 eV                                      
   ICORE  =        2    local potential                                         
   LCOR   =        T    correct aug charges                                     
   LPAW   =        T    paw PP                                                  
   EAUG   =  322.069                                                            
   DEXC   =    -.007                                                            
   RMAX   =    2.944    core radius for proj-oper                               
   RAUG   =    1.300    factor for augmentation sphere                          
   RDEP   =    1.993    radius for radial grids                                 
   QCUT   =   -4.246; QGAM   =    8.493    optimization parameters              
                                                                                
   Description                                                                  
     l     E      TYP  RCUT    TYP  RCUT                                        
     0   .000     23  1.900                                                     
     0   .000     23  1.900                                                     
     1   .000     23  1.900                                                     
     1   .000     23  1.900                                                     
     2   .000      7  1.900                                                     
  local pseudopotential read in
  partial core-charges read in
  atomic valenz-charges read in
  non local Contribution for L=           0  read in
    real space projection operators read in
  non local Contribution for L=           0  read in
    real space projection operators read in
  non local Contribution for L=           1  read in
    real space projection operators read in
  non local Contribution for L=           1  read in
    real space projection operators read in
    PAW grid and wavefunctions read in
 
   number of l-projection  operators is LMAX  =           4
   number of lm-projection operators is LMMAX =           8
 
 PAW_PBE Si 05Jan2001                   :
 energy of atom  1       EATOM= -103.0669
 kinetic energy error for atom=    0.0028 (will be added to EATOM!!)
 
 
 POSCAR: Real silicon structure                  
  positions in direct lattice
  No initial velocities read in
 exchange correlation table for  LEXCH =        8
   RHO(1)=    0.500       N(1)  =     2000
   RHO(2)=  100.500       N(2)  =     4000
 


--------------------------------------------------------------------------------------------------------


 ion  position               nearest neighbor table
   1  0.875  0.875  0.875-   2 2.51   2 2.51   2 2.51   2 2.51
   2  0.125  0.125  0.125-   1 2.51   1 2.51   1 2.51   1 2.51
 
  LATTYP: Found a face centered cubic cell.
 ALAT       =     5.8000000000
  
  Lattice vectors:
  
 A1 = (   0.0000000000,   2.9000000000,   2.9000000000)
 A2 = (   2.9000000000,   0.0000000000,   2.9000000000)
 A3 = (   2.9000000000,   2.9000000000,   0.0000000000)


Analysis of symmetry for initial positions (statically):
=====================================================================
 Subroutine PRICEL returns:
 Original cell was already a primitive cell.
 

 Routine SETGRP: Setting up the symmetry group for a 
 face centered cubic supercell.


 Subroutine GETGRP returns: Found 48 space group operations
 (whereof 12 operations were pure point group operations)
 out of a pool of 48 trial point group operations.


The static configuration has the point symmetry D_3d.
 The point group associated with its full space group is O_h .


Analysis of symmetry for dynamics (positions and initial velocities):
=====================================================================
 Subroutine PRICEL returns:
 Original cell was already a primitive cell.
 

 Routine SETGRP: Setting up the symmetry group for a 
 face centered cubic supercell.


 Subroutine GETGRP returns: Found 48 space group operations
 (whereof 12 operations were pure point group operations)
 out of a pool of 48 trial point group operations.


The dynamic configuration has the point symmetry D_3d.
 The point group associated with its full space group is O_h .
 
 
 KPOINTS: k-points                                

Automatic generation of k-mesh.
Space group operators:
 irot       det(A)        alpha          n_x          n_y          n_z        tau_x        tau_y        tau_z
    1     1.000000     0.000000     1.000000     0.000000     0.000000     0.000000     0.000000     0.000000
    2    -1.000000     0.000000     1.000000     0.000000     0.000000     0.000000     0.000000     0.000000
    3     1.000000   120.000000    -0.577350    -0.577350    -0.577350     0.000000     0.000000     0.000000
    4    -1.000000   120.000000    -0.577350    -0.577350    -0.577350     0.000000     0.000000     0.000000
    5     1.000000   120.000000     0.577350     0.577350     0.577350     0.000000     0.000000     0.000000
    6    -1.000000   120.000000     0.577350     0.577350     0.577350     0.000000     0.000000     0.000000
    7     1.000000   180.000000     0.000000    -0.707107     0.707107     0.000000     0.000000     0.000000
    8    -1.000000   180.000000     0.000000    -0.707107     0.707107     0.000000     0.000000     0.000000
    9     1.000000   180.000000     0.707107    -0.707107     0.000000     0.000000     0.000000     0.000000
   10    -1.000000   180.000000     0.707107    -0.707107     0.000000     0.000000     0.000000     0.000000
   11     1.000000   180.000000     0.707107     0.000000    -0.707107     0.000000     0.000000     0.000000
   12    -1.000000   180.000000     0.707107     0.000000    -0.707107     0.000000     0.000000     0.000000
   13     1.000000    90.000000     0.000000     0.000000    -1.000000     0.500000     0.000000     0.000000
   14    -1.000000    90.000000     0.000000     0.000000    -1.000000     0.500000     0.000000     0.000000
   15     1.000000   180.000000     0.000000     0.707107     0.707107     0.500000     0.000000     0.000000
   16    -1.000000   180.000000     0.000000     0.707107     0.707107     0.500000     0.000000     0.000000
   17     1.000000    90.000000     0.000000     1.000000     0.000000     0.500000     0.000000     0.000000
   18    -1.000000    90.000000     0.000000     1.000000     0.000000     0.500000     0.000000     0.000000
   19     1.000000   180.000000     0.000000     0.000000     1.000000     0.000000     0.000000     0.500000
   20    -1.000000   180.000000     0.000000     0.000000     1.000000     0.000000     0.000000     0.500000
   21     1.000000   120.000000    -0.577350     0.577350     0.577350     0.000000     0.000000     0.500000
   22    -1.000000   120.000000    -0.577350     0.577350     0.577350     0.000000     0.000000     0.500000
   23     1.000000   120.000000    -0.577350     0.577350    -0.577350     0.000000     0.000000     0.500000
   24    -1.000000   120.000000    -0.577350     0.577350    -0.577350     0.000000     0.000000     0.500000
   25     1.000000    90.000000     0.000000     0.000000     1.000000     0.000000     0.500000     0.000000
   26    -1.000000    90.000000     0.000000     0.000000     1.000000     0.000000     0.500000     0.000000
   27     1.000000    90.000000    -1.000000     0.000000     0.000000     0.000000     0.500000     0.000000
   28    -1.000000    90.000000    -1.000000     0.000000     0.000000     0.000000     0.500000     0.000000
   29     1.000000   180.000000     0.707107     0.000000     0.707107     0.000000     0.500000     0.000000
   30    -1.000000   180.000000     0.707107     0.000000     0.707107     0.000000     0.500000     0.000000
   31     1.000000   120.000000     0.577350    -0.577350     0.577350     0.500000     0.000000     0.000000
   32    -1.000000   120.000000     0.577350    -0.577350     0.577350     0.500000     0.000000     0.000000
   33     1.000000   120.000000    -0.577350    -0.577350     0.577350     0.500000     0.000000     0.000000
   34    -1.000000   120.000000    -0.577350    -0.577350     0.577350     0.500000     0.000000     0.000000
   35     1.000000   180.000000     1.000000     0.000000     0.000000     0.500000     0.000000     0.000000
   36    -1.000000   180.000000     1.000000     0.000000     0.000000     0.500000     0.000000     0.000000
   37     1.000000    90.000000     0.000000    -1.000000     0.000000     0.000000     0.000000     0.500000
   38    -1.000000    90.000000     0.000000    -1.000000     0.000000     0.000000     0.000000     0.500000
   39     1.000000   180.000000     0.707107     0.707107     0.000000     0.000000     0.000000     0.500000
   40    -1.000000   180.000000     0.707107     0.707107     0.000000     0.000000     0.000000     0.500000
   41     1.000000    90.000000     1.000000     0.000000     0.000000     0.000000     0.000000     0.500000
   42    -1.000000    90.000000     1.000000     0.000000     0.000000     0.000000     0.000000     0.500000
   43     1.000000   120.000000     0.577350    -0.577350    -0.577350     0.000000     0.500000     0.000000
   44    -1.000000   120.000000     0.577350    -0.577350    -0.577350     0.000000     0.500000     0.000000
   45     1.000000   180.000000     0.000000     1.000000     0.000000     0.000000     0.500000     0.000000
   46    -1.000000   180.000000     0.000000     1.000000     0.000000     0.000000     0.500000     0.000000
   47     1.000000   120.000000     0.577350     0.577350    -0.577350     0.000000     0.500000     0.000000
   48    -1.000000   120.000000     0.577350     0.577350    -0.577350     0.000000     0.500000     0.000000
 
 Subroutine IBZKPT returns following result:
 ===========================================
 
 Found    120 irreducible k-points:
 
 Following reciprocal coordinates:
            Coordinates               Weight
  0.000000  0.000000  0.000000      1.000000
  0.066667  0.000000  0.000000      8.000000
  0.133333  0.000000  0.000000      8.000000
  0.200000  0.000000  0.000000      8.000000
  0.266667  0.000000  0.000000      8.000000
  0.333333  0.000000  0.000000      8.000000
  0.400000  0.000000  0.000000      8.000000
  0.466667  0.000000  0.000000      8.000000
  0.066667  0.066667  0.000000      6.000000
  0.133333  0.066667  0.000000     24.000000
  0.200000  0.066667  0.000000     24.000000
  0.266667  0.066667  0.000000     24.000000
  0.333333  0.066667  0.000000     24.000000
  0.400000  0.066667  0.000000     24.000000
  0.466667  0.066667  0.000000     24.000000
 -0.466667  0.066667  0.000000     24.000000
 -0.400000  0.066667  0.000000     24.000000
 -0.333333  0.066667  0.000000     24.000000
 -0.266667  0.066667  0.000000     24.000000
 -0.200000  0.066667  0.000000     24.000000
 -0.133333  0.066667  0.000000     24.000000
 -0.066667  0.066667  0.000000     12.000000
  0.133333  0.133333  0.000000      6.000000
  0.200000  0.133333  0.000000     24.000000
  0.266667  0.133333  0.000000     24.000000
  0.333333  0.133333  0.000000     24.000000
  0.400000  0.133333  0.000000     24.000000
  0.466667  0.133333  0.000000     24.000000
 -0.466667  0.133333  0.000000     24.000000
 -0.400000  0.133333  0.000000     24.000000
 -0.333333  0.133333  0.000000     24.000000
 -0.266667  0.133333  0.000000     24.000000
 -0.200000  0.133333  0.000000     24.000000
 -0.133333  0.133333  0.000000     12.000000
  0.200000  0.200000  0.000000      6.000000
  0.266667  0.200000  0.000000     24.000000
  0.333333  0.200000  0.000000     24.000000
  0.400000  0.200000  0.000000     24.000000
  0.466667  0.200000  0.000000     24.000000
 -0.466667  0.200000  0.000000     24.000000
 -0.400000  0.200000  0.000000     24.000000
 -0.333333  0.200000  0.000000     24.000000
 -0.266667  0.200000  0.000000     24.000000
 -0.200000  0.200000  0.000000     12.000000
  0.266667  0.266667  0.000000      6.000000
  0.333333  0.266667  0.000000     24.000000
  0.400000  0.266667  0.000000     24.000000
  0.466667  0.266667  0.000000     24.000000
 -0.466667  0.266667  0.000000     24.000000
 -0.400000  0.266667  0.000000     24.000000
 -0.333333  0.266667  0.000000     24.000000
 -0.266667  0.266667  0.000000     12.000000
  0.333333  0.333333  0.000000      6.000000
  0.400000  0.333333  0.000000     24.000000
  0.466667  0.333333  0.000000     24.000000
 -0.466667  0.333333  0.000000     24.000000
 -0.400000  0.333333  0.000000     24.000000
 -0.333333  0.333333  0.000000     12.000000
  0.400000  0.400000  0.000000      6.000000
  0.466667  0.400000  0.000000     24.000000
 -0.466667  0.400000  0.000000     24.000000
 -0.400000  0.400000  0.000000     12.000000
  0.466667  0.466667  0.000000      6.000000
 -0.466667  0.466667  0.000000     12.000000
  0.200000  0.133333  0.066667     24.000000
  0.266667  0.133333  0.066667     48.000000
  0.333333  0.133333  0.066667     48.000000
  0.400000  0.133333  0.066667     48.000000
  0.466667  0.133333  0.066667     48.000000
 -0.466667  0.133333  0.066667     48.000000
  0.266667  0.200000  0.066667     24.000000
  0.333333  0.200000  0.066667     48.000000
  0.400000  0.200000  0.066667     48.000000
  0.466667  0.200000  0.066667     48.000000
 -0.466667  0.200000  0.066667     48.000000
 -0.400000  0.200000  0.066667     48.000000
 -0.333333  0.200000  0.066667     48.000000
 -0.266667  0.200000  0.066667     48.000000
 -0.200000  0.200000  0.066667     48.000000
 -0.133333  0.200000  0.066667     24.000000
  0.333333  0.266667  0.066667     24.000000
  0.400000  0.266667  0.066667     48.000000
  0.466667  0.266667  0.066667     48.000000
 -0.466667  0.266667  0.066667     48.000000
 -0.400000  0.266667  0.066667     48.000000
 -0.333333  0.266667  0.066667     48.000000
 -0.266667  0.266667  0.066667     48.000000
 -0.200000  0.266667  0.066667     24.000000
  0.400000  0.333333  0.066667     24.000000
  0.466667  0.333333  0.066667     48.000000
 -0.466667  0.333333  0.066667     48.000000
 -0.400000  0.333333  0.066667     48.000000
 -0.333333  0.333333  0.066667     48.000000
 -0.266667  0.333333  0.066667     24.000000
  0.466667  0.400000  0.066667     24.000000
 -0.466667  0.400000  0.066667     48.000000
 -0.400000  0.400000  0.066667     48.000000
 -0.333333  0.400000  0.066667     24.000000
 -0.466667  0.466667  0.066667     24.000000
 -0.400000  0.466667  0.066667     24.000000
  0.400000  0.266667  0.133333     24.000000
  0.466667  0.266667  0.133333     48.000000
 -0.466667  0.266667  0.133333     48.000000
 -0.400000  0.266667  0.133333     48.000000
  0.466667  0.333333  0.133333     24.000000
 -0.466667  0.333333  0.133333     48.000000
 -0.400000  0.333333  0.133333     48.000000
 -0.333333  0.333333  0.133333     48.000000
 -0.266667  0.333333  0.133333     48.000000
 -0.200000  0.333333  0.133333     24.000000
 -0.466667  0.400000  0.133333     24.000000
 -0.400000  0.400000  0.133333     48.000000
 -0.333333  0.400000  0.133333     48.000000
 -0.266667  0.400000  0.133333     24.000000
 -0.400000  0.466667  0.133333     24.000000
 -0.333333  0.466667  0.133333     24.000000
 -0.400000  0.400000  0.200000     24.000000
 -0.333333  0.400000  0.200000     48.000000
 -0.333333  0.466667  0.200000     24.000000
 -0.266667  0.466667  0.200000     24.000000
 
 Following cartesian coordinates:
            Coordinates               Weight
  0.000000  0.000000  0.000000      1.000000
 -0.066667  0.066667  0.066667      8.000000
 -0.133333  0.133333  0.133333      8.000000
 -0.200000  0.200000  0.200000      8.000000
 -0.266667  0.266667  0.266667      8.000000
 -0.333333  0.333333  0.333333      8.000000
 -0.400000  0.400000  0.400000      8.000000
 -0.466667  0.466667  0.466667      8.000000
  0.000000  0.000000  0.133333      6.000000
 -0.066667  0.066667  0.200000     24.000000
 -0.133333  0.133333  0.266667     24.000000
 -0.200000  0.200000  0.333333     24.000000
 -0.266667  0.266667  0.400000     24.000000
 -0.333333  0.333333  0.466667     24.000000
 -0.400000  0.400000  0.533333     24.000000
  0.533333 -0.533333 -0.400000     24.000000
  0.466667 -0.466667 -0.333333     24.000000
  0.400000 -0.400000 -0.266667     24.000000
  0.333333 -0.333333 -0.200000     24.000000
  0.266667 -0.266667 -0.133333     24.000000
  0.200000 -0.200000 -0.066667     24.000000
  0.133333 -0.133333  0.000000     12.000000
  0.000000  0.000000  0.266667      6.000000
 -0.066667  0.066667  0.333333     24.000000
 -0.133333  0.133333  0.400000     24.000000
 -0.200000  0.200000  0.466667     24.000000
 -0.266667  0.266667  0.533333     24.000000
 -0.333333  0.333333  0.600000     24.000000
  0.600000 -0.600000 -0.333333     24.000000
  0.533333 -0.533333 -0.266667     24.000000
  0.466667 -0.466667 -0.200000     24.000000
  0.400000 -0.400000 -0.133333     24.000000
  0.333333 -0.333333 -0.066667     24.000000
  0.266667 -0.266667  0.000000     12.000000
  0.000000  0.000000  0.400000      6.000000
 -0.066667  0.066667  0.466667     24.000000
 -0.133333  0.133333  0.533333     24.000000
 -0.200000  0.200000  0.600000     24.000000
 -0.266667  0.266667  0.666667     24.000000
  0.666667 -0.666667 -0.266667     24.000000
  0.600000 -0.600000 -0.200000     24.000000
  0.533333 -0.533333 -0.133333     24.000000
  0.466667 -0.466667 -0.066667     24.000000
  0.400000 -0.400000  0.000000     12.000000
  0.000000  0.000000  0.533333      6.000000
 -0.066667  0.066667  0.600000     24.000000
 -0.133333  0.133333  0.666667     24.000000
 -0.200000  0.200000  0.733333     24.000000
  0.733333 -0.733333 -0.200000     24.000000
  0.666667 -0.666667 -0.133333     24.000000
  0.600000 -0.600000 -0.066667     24.000000
  0.533333 -0.533333  0.000000     12.000000
  0.000000  0.000000  0.666667      6.000000
 -0.066667  0.066667  0.733333     24.000000
 -0.133333  0.133333  0.800000     24.000000
  0.800000 -0.800000 -0.133333     24.000000
  0.733333 -0.733333 -0.066667     24.000000
  0.666667 -0.666667  0.000000     12.000000
  0.000000  0.000000  0.800000      6.000000
 -0.066667  0.066667  0.866667     24.000000
  0.866667 -0.866667 -0.066667     24.000000
  0.800000 -0.800000  0.000000     12.000000
  0.000000  0.000000  0.933333      6.000000
  0.933333 -0.933333  0.000000     12.000000
  0.000000  0.133333  0.266667     24.000000
 -0.066667  0.200000  0.333333     48.000000
 -0.133333  0.266667  0.400000     48.000000
 -0.200000  0.333333  0.466667     48.000000
 -0.266667  0.400000  0.533333     48.000000
  0.666667 -0.533333 -0.400000     48.000000
  0.000000  0.133333  0.400000     24.000000
 -0.066667  0.200000  0.466667     48.000000
 -0.133333  0.266667  0.533333     48.000000
 -0.200000  0.333333  0.600000     48.000000
  0.733333 -0.600000 -0.333333     48.000000
  0.666667 -0.533333 -0.266667     48.000000
  0.600000 -0.466667 -0.200000     48.000000
  0.533333 -0.400000 -0.133333     48.000000
  0.466667 -0.333333 -0.066667     48.000000
  0.400000 -0.266667  0.000000     24.000000
  0.000000  0.133333  0.533333     24.000000
 -0.066667  0.200000  0.600000     48.000000
 -0.133333  0.266667  0.666667     48.000000
  0.800000 -0.666667 -0.266667     48.000000
  0.733333 -0.600000 -0.200000     48.000000
  0.666667 -0.533333 -0.133333     48.000000
  0.600000 -0.466667 -0.066667     48.000000
  0.533333 -0.400000 -0.000000     24.000000
 -0.000000  0.133333  0.666667     24.000000
 -0.066667  0.200000  0.733333     48.000000
  0.866667 -0.733333 -0.200000     48.000000
  0.800000 -0.666667 -0.133333     48.000000
  0.733333 -0.600000 -0.066667     48.000000
  0.666667 -0.533333 -0.000000     24.000000
  0.000000  0.133333  0.800000     24.000000
  0.933333 -0.800000 -0.133333     48.000000
  0.866667 -0.733333 -0.066667     48.000000
  0.800000 -0.666667  0.000000     24.000000
  1.000000 -0.866667 -0.066667     24.000000
  0.933333 -0.800000 -0.000000     24.000000
 -0.000000  0.266667  0.533333     24.000000
 -0.066667  0.333333  0.600000     48.000000
  0.866667 -0.600000 -0.333333     48.000000
  0.800000 -0.533333 -0.266667     48.000000
 -0.000000  0.266667  0.666667     24.000000
  0.933333 -0.666667 -0.266667     48.000000
  0.866667 -0.600000 -0.200000     48.000000
  0.800000 -0.533333 -0.133333     48.000000
  0.733333 -0.466667 -0.066667     48.000000
  0.666667 -0.400000 -0.000000     24.000000
  1.000000 -0.733333 -0.200000     24.000000
  0.933333 -0.666667 -0.133333     48.000000
  0.866667 -0.600000 -0.066667     48.000000
  0.800000 -0.533333  0.000000     24.000000
  1.000000 -0.733333 -0.066667     24.000000
  0.933333 -0.666667  0.000000     24.000000
  1.000000 -0.600000 -0.200000     24.000000
  0.933333 -0.533333 -0.133333     48.000000
  1.000000 -0.600000 -0.066667     24.000000
  0.933333 -0.533333  0.000000     24.000000
 


--------------------------------------------------------------------------------------------------------




 Dimension of arrays:
   k-points           NKPTS =    120   k-points in BZ     NKDIM =    120   number of bands    NBANDS=     16
   number of dos      NEDOS =    301   number of ions     NIONS =      2
   non local maximal  LDIM  =      4   non local SUM 2l+1 LMDIM =      8
   total plane-waves  NPLWV =   5832
   max r-space proj   IRMAX =      1   max aug-charges    IRDMAX=   4197
   dimension x,y,z NGX =    18 NGY =   18 NGZ =   18
   dimension x,y,z NGXF=    36 NGYF=   36 NGZF=   36
   support grid    NGXF=    36 NGYF=   36 NGZF=   36
   ions per type =               2
 NGX,Y,Z   is equivalent  to a cutoff of   7.30,  7.30,  7.30 a.u.
 NGXF,Y,Z  is equivalent  to a cutoff of  14.59, 14.59, 14.59 a.u.


 I would recommend the setting:
   dimension x,y,z NGX =    17 NGY =   17 NGZ =   17
 SYSTEM =  Silicon                                 
 POSCAR =  Real silicon structure                  

 Startparameter for this run:
   NWRITE =      2    write-flag & timer
   PREC   = normal    normal or accurate (medium, high low for compatibility)
   ISTART =      0    job   : 0-new  1-cont  2-samecut
   ICHARG =      2    charge: 1-file 2-atom 10-const
   ISPIN  =      1    spin polarized calculation?
   LNONCOLLINEAR =      F non collinear calculations
   LSORBIT =      F    spin-orbit coupling
   INIWAV =      1    electr: 0-lowe 1-rand  2-diag
   LASPH  =      F    aspherical Exc in radial PAW
   METAGGA=      F    non-selfconsistent MetaGGA calc.

 Electronic Relaxation 1
   ENCUT  =  280.0 eV  20.58 Ry    4.54 a.u.   5.60  5.60  5.60*2*pi/ulx,y,z
   ENINI  =  280.0     initial cutoff
   ENAUG  =  322.1 eV  augmentation charge cutoff
   NELM   =    100;   NELMIN=  4; NELMDL= -5     # of ELM steps 
   EDIFF  = 0.1E-05   stopping-criterion for ELM
   LREAL  =      F    real-space projection
   NLSPLINE    = F    spline interpolate recip. space projectors
   LCOMPAT=      F    compatible to vasp.4.4
   GGA_COMPAT  = T    GGA compatible to vasp.4.4-vasp.4.6
   LMAXPAW     = -100 max onsite density
   LMAXMIX     =    2 max onsite mixed and CHGCAR
   VOSKOWN=      0    Vosko Wilk Nusair interpolation
   ROPT   =    0.00000
 Ionic relaxation
   EDIFFG = 0.1E-04   stopping-criterion for IOM
   NSW    =      0    number of steps for IOM
   NBLOCK =      1;   KBLOCK =      1    inner block; outer block 
   IBRION =     -1    ionic relax: 0-MD 1-quasi-New 2-CG
   NFREE  =      0    steps in history (QN), initial steepest desc. (CG)
   ISIF   =      2    stress and relaxation
   IWAVPR =     10    prediction:  0-non 1-charg 2-wave 3-comb
   ISYM   =      2    0-nonsym 1-usesym 2-fastsym
   LCORR  =      T    Harris-Foulkes like correction to forces

   POTIM  = 0.5000    time-step for ionic-motion
   TEIN   =    0.0    initial temperature
   TEBEG  =    0.0;   TEEND  =   0.0 temperature during run
   SMASS  =  -3.00    Nose mass-parameter (am)
   estimated Nose-frequenzy (Omega)   =  0.10E-29 period in steps =****** mass=  -0.384E-27a.u.
   SCALEE = 1.0000    scale energy and forces
   NPACO  =    256;   APACO  = 16.0  distance and # of slots for P.C.
   PSTRESS=    0.0 pullay stress

  Mass of Ions in am
   POMASS =  28.09
  Ionic Valenz
   ZVAL   =   4.00
  Atomic Wigner-Seitz radii
   RWIGS  =  -1.00
  virtual crystal weights 
   VCA    =   1.00
   NELECT =       8.0000    total number of electrons
   NUPDOWN=      -1.0000    fix difference up-down

 DOS related values:
   EMIN   =  10.00;   EMAX   =-10.00  energy-range for DOS
   EFERMI =   0.00
   ISMEAR =     0;   SIGMA  =   0.10  broadening in eV -4-tet -1-fermi 0-gaus

 Electronic relaxation 2 (details)
   IALGO  =     38    algorithm
   LDIAG  =      T    sub-space diagonalisation (order eigenvalues)
   LSUBROT=      F    optimize rotation matrix (better conditioning)
   TURBO    =      0    0=normal 1=particle mesh
   IRESTART =      0    0=no restart 2=restart with 2 vectors
   NREBOOT  =      0    no. of reboots
   NMIN     =      0    reboot dimension
   EREF     =   0.00    reference energy to select bands
   IMIX   =      4    mixing-type and parameters
     AMIX     =   0.40;   BMIX     =  1.00
     AMIX_MAG =   1.60;   BMIX_MAG =  1.00
     AMIN     =   0.10
     WC   =   100.;   INIMIX=   1;  MIXPRE=   1;  MAXMIX= -45

 Intra band minimization:
   WEIMIN = 0.0000     energy-eigenvalue tresh-hold
   EBREAK =  0.16E-07  absolut break condition
   DEPER  =   0.30     relativ break condition  

   TIME   =   0.40     timestep for ELM

  volume/ion in A,a.u.               =      24.39       164.59
  Fermi-wavevector in a.u.,A,eV,Ry     =   0.896114  1.693411 10.925766  0.803021
  Thomas-Fermi vector in A             =   2.018532
 
 Write flags
   LWAVE  =      T    write WAVECAR
   LCHARG =      T    write CHGCAR
   LVTOT  =      F    write LOCPOT, total local potential
   LVHAR  =      F    write LOCPOT, Hartree potential only
   LELF   =      F    write electronic localiz. function (ELF)
   LORBIT =      0    0 simple, 1 ext, 2 COOP (PROOUT)


 Dipole corrections
   LMONO  =      F    monopole corrections only (constant potential shift)
   LDIPOL =      F    correct potential (dipole corrections)
   IDIPOL =      0    1-x, 2-y, 3-z, 4-all directions 
   EPSILON=  1.0000000 bulk dielectric constant

 Exchange correlation treatment:
   GGA     =    --    GGA type
   LEXCH   =     8    internal setting for exchange type
   VOSKOWN=      0    Vosko Wilk Nusair interpolation
   LHFCALC =     F    Hartree Fock is set to
   LHFONE  =     F    Hartree Fock one center treatment
   AEXX    =    0.0000 exact exchange contribution

 Linear response parameters
   LEPSILON=     F    determine dielectric tensor
   LRPA    =     F    only Hartree local field effects (RPA)
   LNABLA  =     F    use nabla operator in PAW spheres
   LVEL    =     F    velocity operator in full k-point grid
   LINTERFAST=   F  fast interpolation
   KINTER  =     0    interpolate to denser k-point grid
   CSHIFT  =0.1000    complex shift for real part using Kramers Kronig
   OMEGAMAX=  -1.0    maximum frequency
   DEG_THRESHOLD= 0.2000000E-02 threshold for treating states as degnerate
   RTIME   =    0.100 relaxation time in fs

 Orbital magnetization related:
   ORBITALMAG=     F  switch on orbital magnetization
   LCHIMAG   =     F  perturbation theory with respect to B field
   DQ        =  0.001000  dq finite difference perturbation B field



--------------------------------------------------------------------------------------------------------


 Static calculation
 charge density and potential will be updated during run
 non-spin polarized calculation
 Variant of blocked Davidson
 Davidson routine will perform the subspace rotation
 perform sub-space diagonalisation
    after iterative eigenvector-optimisation
 modified Broyden-mixing scheme, WC =      100.0
 initial mixing is a Kerker type mixing with AMIX =  0.4000 and BMIX =      1.0000
 Hartree-type preconditioning will be used
 using additional bands           12
 reciprocal scheme for non local part
 use partial core corrections
 calculate Harris-corrections to forces 
   (improved forces if not selfconsistent)
 use gradient corrections 
 use of overlap-Matrix (Vanderbilt PP)
 Gauss-broadening in eV      SIGMA  =   0.10


--------------------------------------------------------------------------------------------------------


  energy-cutoff  :      280.00
  volume of cell :       48.78
      direct lattice vectors                 reciprocal lattice vectors
     0.000000000  2.900000000  2.900000000    -0.172413793  0.172413793  0.172413793
     2.900000000  0.000000000  2.900000000     0.172413793 -0.172413793  0.172413793
     2.900000000  2.900000000  0.000000000     0.172413793  0.172413793 -0.172413793

  length of vectors
     4.101219331  4.101219331  4.101219331     0.298629450  0.298629450  0.298629450


 
 k-points in units of 2pi/SCALE and weight: k-points                                
   0.00000000  0.00000000  0.00000000       0.000
  -0.06666667  0.06666667  0.06666667       0.002
  -0.13333333  0.13333333  0.13333333       0.002
  -0.20000000  0.20000000  0.20000000       0.002
  -0.26666667  0.26666667  0.26666667       0.002
  -0.33333333  0.33333333  0.33333333       0.002
  -0.40000000  0.40000000  0.40000000       0.002
  -0.46666667  0.46666667  0.46666667       0.002
   0.00000000  0.00000000  0.13333333       0.002
  -0.06666667  0.06666667  0.20000000       0.007
  -0.13333333  0.13333333  0.26666667       0.007
  -0.20000000  0.20000000  0.33333333       0.007
  -0.26666667  0.26666667  0.40000000       0.007
  -0.33333333  0.33333333  0.46666667       0.007
  -0.40000000  0.40000000  0.53333333       0.007
   0.53333333 -0.53333333 -0.40000000       0.007
   0.46666667 -0.46666667 -0.33333333       0.007
   0.40000000 -0.40000000 -0.26666667       0.007
   0.33333333 -0.33333333 -0.20000000       0.007
   0.26666667 -0.26666667 -0.13333333       0.007
   0.20000000 -0.20000000 -0.06666667       0.007
   0.13333333 -0.13333333  0.00000000       0.004
   0.00000000  0.00000000  0.26666667       0.002
  -0.06666667  0.06666667  0.33333333       0.007
  -0.13333333  0.13333333  0.40000000       0.007
  -0.20000000  0.20000000  0.46666667       0.007
  -0.26666667  0.26666667  0.53333333       0.007
  -0.33333333  0.33333333  0.60000000       0.007
   0.60000000 -0.60000000 -0.33333333       0.007
   0.53333333 -0.53333333 -0.26666667       0.007
   0.46666667 -0.46666667 -0.20000000       0.007
   0.40000000 -0.40000000 -0.13333333       0.007
   0.33333333 -0.33333333 -0.06666667       0.007
   0.26666667 -0.26666667  0.00000000       0.004
   0.00000000  0.00000000  0.40000000       0.002
  -0.06666667  0.06666667  0.46666667       0.007
  -0.13333333  0.13333333  0.53333333       0.007
  -0.20000000  0.20000000  0.60000000       0.007
  -0.26666667  0.26666667  0.66666667       0.007
   0.66666667 -0.66666667 -0.26666667       0.007
   0.60000000 -0.60000000 -0.20000000       0.007
   0.53333333 -0.53333333 -0.13333333       0.007
   0.46666667 -0.46666667 -0.06666667       0.007
   0.40000000 -0.40000000  0.00000000       0.004
   0.00000000  0.00000000  0.53333333       0.002
  -0.06666667  0.06666667  0.60000000       0.007
  -0.13333333  0.13333333  0.66666667       0.007
  -0.20000000  0.20000000  0.73333333       0.007
   0.73333333 -0.73333333 -0.20000000       0.007
   0.66666667 -0.66666667 -0.13333333       0.007
   0.60000000 -0.60000000 -0.06666667       0.007
   0.53333333 -0.53333333  0.00000000       0.004
   0.00000000  0.00000000  0.66666667       0.002
  -0.06666667  0.06666667  0.73333333       0.007
  -0.13333333  0.13333333  0.80000000       0.007
   0.80000000 -0.80000000 -0.13333333       0.007
   0.73333333 -0.73333333 -0.06666667       0.007
   0.66666667 -0.66666667  0.00000000       0.004
   0.00000000  0.00000000  0.80000000       0.002
  -0.06666667  0.06666667  0.86666667       0.007
   0.86666667 -0.86666667 -0.06666667       0.007
   0.80000000 -0.80000000  0.00000000       0.004
   0.00000000  0.00000000  0.93333333       0.002
   0.93333333 -0.93333333  0.00000000       0.004
   0.00000000  0.13333333  0.26666667       0.007
  -0.06666667  0.20000000  0.33333333       0.014
  -0.13333333  0.26666667  0.40000000       0.014
  -0.20000000  0.33333333  0.46666667       0.014
  -0.26666667  0.40000000  0.53333333       0.014
   0.66666667 -0.53333333 -0.40000000       0.014
   0.00000000  0.13333333  0.40000000       0.007
  -0.06666667  0.20000000  0.46666667       0.014
  -0.13333333  0.26666667  0.53333333       0.014
  -0.20000000  0.33333333  0.60000000       0.014
   0.73333333 -0.60000000 -0.33333333       0.014
   0.66666667 -0.53333333 -0.26666667       0.014
   0.60000000 -0.46666667 -0.20000000       0.014
   0.53333333 -0.40000000 -0.13333333       0.014
   0.46666667 -0.33333333 -0.06666667       0.014
   0.40000000 -0.26666667  0.00000000       0.007
   0.00000000  0.13333333  0.53333333       0.007
  -0.06666667  0.20000000  0.60000000       0.014
  -0.13333333  0.26666667  0.66666667       0.014
   0.80000000 -0.66666667 -0.26666667       0.014
   0.73333333 -0.60000000 -0.20000000       0.014
   0.66666667 -0.53333333 -0.13333333       0.014
   0.60000000 -0.46666667 -0.06666667       0.014
   0.53333333 -0.40000000 -0.00000000       0.007
  -0.00000000  0.13333333  0.66666667       0.007
  -0.06666667  0.20000000  0.73333333       0.014
   0.86666667 -0.73333333 -0.20000000       0.014
   0.80000000 -0.66666667 -0.13333333       0.014
   0.73333333 -0.60000000 -0.06666667       0.014
   0.66666667 -0.53333333 -0.00000000       0.007
   0.00000000  0.13333333  0.80000000       0.007
   0.93333333 -0.80000000 -0.13333333       0.014
   0.86666667 -0.73333333 -0.06666667       0.014
   0.80000000 -0.66666667  0.00000000       0.007
   1.00000000 -0.86666667 -0.06666667       0.007
   0.93333333 -0.80000000 -0.00000000       0.007
  -0.00000000  0.26666667  0.53333333       0.007
  -0.06666667  0.33333333  0.60000000       0.014
   0.86666667 -0.60000000 -0.33333333       0.014
   0.80000000 -0.53333333 -0.26666667       0.014
  -0.00000000  0.26666667  0.66666667       0.007
   0.93333333 -0.66666667 -0.26666667       0.014
   0.86666667 -0.60000000 -0.20000000       0.014
   0.80000000 -0.53333333 -0.13333333       0.014
   0.73333333 -0.46666667 -0.06666667       0.014
   0.66666667 -0.40000000 -0.00000000       0.007
   1.00000000 -0.73333333 -0.20000000       0.007
   0.93333333 -0.66666667 -0.13333333       0.014
   0.86666667 -0.60000000 -0.06666667       0.014
   0.80000000 -0.53333333  0.00000000       0.007
   1.00000000 -0.73333333 -0.06666667       0.007
   0.93333333 -0.66666667  0.00000000       0.007
   1.00000000 -0.60000000 -0.20000000       0.007
   0.93333333 -0.53333333 -0.13333333       0.014
   1.00000000 -0.60000000 -0.06666667       0.007
   0.93333333 -0.53333333  0.00000000       0.007
 
 k-points in reciprocal lattice and weights: k-points                                
   0.00000000  0.00000000  0.00000000       0.000
   0.06666667  0.00000000  0.00000000       0.002
   0.13333333  0.00000000  0.00000000       0.002
   0.20000000  0.00000000  0.00000000       0.002
   0.26666667  0.00000000  0.00000000       0.002
   0.33333333  0.00000000  0.00000000       0.002
   0.40000000  0.00000000  0.00000000       0.002
   0.46666667  0.00000000  0.00000000       0.002
   0.06666667  0.06666667  0.00000000       0.002
   0.13333333  0.06666667  0.00000000       0.007
   0.20000000  0.06666667  0.00000000       0.007
   0.26666667  0.06666667  0.00000000       0.007
   0.33333333  0.06666667  0.00000000       0.007
   0.40000000  0.06666667  0.00000000       0.007
   0.46666667  0.06666667  0.00000000       0.007
  -0.46666667  0.06666667  0.00000000       0.007
  -0.40000000  0.06666667  0.00000000       0.007
  -0.33333333  0.06666667  0.00000000       0.007
  -0.26666667  0.06666667  0.00000000       0.007
  -0.20000000  0.06666667  0.00000000       0.007
  -0.13333333  0.06666667  0.00000000       0.007
  -0.06666667  0.06666667  0.00000000       0.004
   0.13333333  0.13333333  0.00000000       0.002
   0.20000000  0.13333333  0.00000000       0.007
   0.26666667  0.13333333  0.00000000       0.007
   0.33333333  0.13333333  0.00000000       0.007
   0.40000000  0.13333333  0.00000000       0.007
   0.46666667  0.13333333  0.00000000       0.007
  -0.46666667  0.13333333  0.00000000       0.007
  -0.40000000  0.13333333  0.00000000       0.007
  -0.33333333  0.13333333  0.00000000       0.007
  -0.26666667  0.13333333  0.00000000       0.007
  -0.20000000  0.13333333  0.00000000       0.007
  -0.13333333  0.13333333  0.00000000       0.004
   0.20000000  0.20000000  0.00000000       0.002
   0.26666667  0.20000000  0.00000000       0.007
   0.33333333  0.20000000  0.00000000       0.007
   0.40000000  0.20000000  0.00000000       0.007
   0.46666667  0.20000000  0.00000000       0.007
  -0.46666667  0.20000000  0.00000000       0.007
  -0.40000000  0.20000000  0.00000000       0.007
  -0.33333333  0.20000000  0.00000000       0.007
  -0.26666667  0.20000000  0.00000000       0.007
  -0.20000000  0.20000000  0.00000000       0.004
   0.26666667  0.26666667  0.00000000       0.002
   0.33333333  0.26666667  0.00000000       0.007
   0.40000000  0.26666667  0.00000000       0.007
   0.46666667  0.26666667  0.00000000       0.007
  -0.46666667  0.26666667  0.00000000       0.007
  -0.40000000  0.26666667  0.00000000       0.007
  -0.33333333  0.26666667  0.00000000       0.007
  -0.26666667  0.26666667  0.00000000       0.004
   0.33333333  0.33333333  0.00000000       0.002
   0.40000000  0.33333333  0.00000000       0.007
   0.46666667  0.33333333  0.00000000       0.007
  -0.46666667  0.33333333  0.00000000       0.007
  -0.40000000  0.33333333  0.00000000       0.007
  -0.33333333  0.33333333  0.00000000       0.004
   0.40000000  0.40000000  0.00000000       0.002
   0.46666667  0.40000000  0.00000000       0.007
  -0.46666667  0.40000000  0.00000000       0.007
  -0.40000000  0.40000000  0.00000000       0.004
   0.46666667  0.46666667  0.00000000       0.002
  -0.46666667  0.46666667  0.00000000       0.004
   0.20000000  0.13333333  0.06666667       0.007
   0.26666667  0.13333333  0.06666667       0.014
   0.33333333  0.13333333  0.06666667       0.014
   0.40000000  0.13333333  0.06666667       0.014
   0.46666667  0.13333333  0.06666667       0.014
  -0.46666667  0.13333333  0.06666667       0.014
   0.26666667  0.20000000  0.06666667       0.007
   0.33333333  0.20000000  0.06666667       0.014
   0.40000000  0.20000000  0.06666667       0.014
   0.46666667  0.20000000  0.06666667       0.014
  -0.46666667  0.20000000  0.06666667       0.014
  -0.40000000  0.20000000  0.06666667       0.014
  -0.33333333  0.20000000  0.06666667       0.014
  -0.26666667  0.20000000  0.06666667       0.014
  -0.20000000  0.20000000  0.06666667       0.014
  -0.13333333  0.20000000  0.06666667       0.007
   0.33333333  0.26666667  0.06666667       0.007
   0.40000000  0.26666667  0.06666667       0.014
   0.46666667  0.26666667  0.06666667       0.014
  -0.46666667  0.26666667  0.06666667       0.014
  -0.40000000  0.26666667  0.06666667       0.014
  -0.33333333  0.26666667  0.06666667       0.014
  -0.26666667  0.26666667  0.06666667       0.014
  -0.20000000  0.26666667  0.06666667       0.007
   0.40000000  0.33333333  0.06666667       0.007
   0.46666667  0.33333333  0.06666667       0.014
  -0.46666667  0.33333333  0.06666667       0.014
  -0.40000000  0.33333333  0.06666667       0.014
  -0.33333333  0.33333333  0.06666667       0.014
  -0.26666667  0.33333333  0.06666667       0.007
   0.46666667  0.40000000  0.06666667       0.007
  -0.46666667  0.40000000  0.06666667       0.014
  -0.40000000  0.40000000  0.06666667       0.014
  -0.33333333  0.40000000  0.06666667       0.007
  -0.46666667  0.46666667  0.06666667       0.007
  -0.40000000  0.46666667  0.06666667       0.007
   0.40000000  0.26666667  0.13333333       0.007
   0.46666667  0.26666667  0.13333333       0.014
  -0.46666667  0.26666667  0.13333333       0.014
  -0.40000000  0.26666667  0.13333333       0.014
   0.46666667  0.33333333  0.13333333       0.007
  -0.46666667  0.33333333  0.13333333       0.014
  -0.40000000  0.33333333  0.13333333       0.014
  -0.33333333  0.33333333  0.13333333       0.014
  -0.26666667  0.33333333  0.13333333       0.014
  -0.20000000  0.33333333  0.13333333       0.007
  -0.46666667  0.40000000  0.13333333       0.007
  -0.40000000  0.40000000  0.13333333       0.014
  -0.33333333  0.40000000  0.13333333       0.014
  -0.26666667  0.40000000  0.13333333       0.007
  -0.40000000  0.46666667  0.13333333       0.007
  -0.33333333  0.46666667  0.13333333       0.007
  -0.40000000  0.40000000  0.20000000       0.007
  -0.33333333  0.40000000  0.20000000       0.014
  -0.33333333  0.46666667  0.20000000       0.007
  -0.26666667  0.46666667  0.20000000       0.007
 
 position of ions in fractional coordinates (direct lattice) 
   0.87500000  0.87500000  0.87500000
   0.12500000  0.12500000  0.12500000
 
 position of ions in cartesian coordinates  (Angst):
   5.07500000  5.07500000  5.07500000
   0.72500000  0.72500000  0.72500000
 


--------------------------------------------------------------------------------------------------------


 k-point  1 :   0.0000 0.0000 0.0000  plane waves:     531
 k-point  2 :   0.0667 0.0000 0.0000  plane waves:     531
 k-point  3 :   0.1333 0.0000 0.0000  plane waves:     534
 k-point  4 :   0.2000 0.0000 0.0000  plane waves:     525
 k-point  5 :   0.2667 0.0000 0.0000  plane waves:     522
 k-point  6 :   0.3333 0.0000 0.0000  plane waves:     516
 k-point  7 :   0.4000 0.0000 0.0000  plane waves:     516
 k-point  8 :   0.4667 0.0000 0.0000  plane waves:     523
 k-point  9 :   0.0667 0.0667 0.0000  plane waves:     532
 k-point 10 :   0.1333 0.0667 0.0000  plane waves:     532
 k-point 11 :   0.2000 0.0667 0.0000  plane waves:     526
 k-point 12 :   0.2667 0.0667 0.0000  plane waves:     527
 k-point 13 :   0.3333 0.0667 0.0000  plane waves:     519
 k-point 14 :   0.4000 0.0667 0.0000  plane waves:     517
 k-point 15 :   0.4667 0.0667 0.0000  plane waves:     520
 k-point 16 :  -0.4667 0.0667 0.0000  plane waves:     523
 k-point 17 :  -0.4000 0.0667 0.0000  plane waves:     521
 k-point 18 :  -0.3333 0.0667 0.0000  plane waves:     520
 k-point 19 :  -0.2667 0.0667 0.0000  plane waves:     522
 k-point 20 :  -0.2000 0.0667 0.0000  plane waves:     524
 k-point 21 :  -0.1333 0.0667 0.0000  plane waves:     523
 k-point 22 :  -0.0667 0.0667 0.0000  plane waves:     533
 k-point 23 :   0.1333 0.1333 0.0000  plane waves:     524
 k-point 24 :   0.2000 0.1333 0.0000  plane waves:     525
 k-point 25 :   0.2667 0.1333 0.0000  plane waves:     525
 k-point 26 :   0.3333 0.1333 0.0000  plane waves:     519
 k-point 27 :   0.4000 0.1333 0.0000  plane waves:     516
 k-point 28 :   0.4667 0.1333 0.0000  plane waves:     521
 k-point 29 :  -0.4667 0.1333 0.0000  plane waves:     521
 k-point 30 :  -0.4000 0.1333 0.0000  plane waves:     519
 k-point 31 :  -0.3333 0.1333 0.0000  plane waves:     519
 k-point 32 :  -0.2667 0.1333 0.0000  plane waves:     518
 k-point 33 :  -0.2000 0.1333 0.0000  plane waves:     521
 k-point 34 :  -0.1333 0.1333 0.0000  plane waves:     523
 k-point 35 :   0.2000 0.2000 0.0000  plane waves:     524
 k-point 36 :   0.2667 0.2000 0.0000  plane waves:     518
 k-point 37 :   0.3333 0.2000 0.0000  plane waves:     522
 k-point 38 :   0.4000 0.2000 0.0000  plane waves:     517
 k-point 39 :   0.4667 0.2000 0.0000  plane waves:     519
 k-point 40 :  -0.4667 0.2000 0.0000  plane waves:     519
 k-point 41 :  -0.4000 0.2000 0.0000  plane waves:     522
 k-point 42 :  -0.3333 0.2000 0.0000  plane waves:     522
 k-point 43 :  -0.2667 0.2000 0.0000  plane waves:     517
 k-point 44 :  -0.2000 0.2000 0.0000  plane waves:     525
 k-point 45 :   0.2667 0.2667 0.0000  plane waves:     520
 k-point 46 :   0.3333 0.2667 0.0000  plane waves:     518
 k-point 47 :   0.4000 0.2667 0.0000  plane waves:     520
 k-point 48 :   0.4667 0.2667 0.0000  plane waves:     517
 k-point 49 :  -0.4667 0.2667 0.0000  plane waves:     516
 k-point 50 :  -0.4000 0.2667 0.0000  plane waves:     517
 k-point 51 :  -0.3333 0.2667 0.0000  plane waves:     520
 k-point 52 :  -0.2667 0.2667 0.0000  plane waves:     518
 k-point 53 :   0.3333 0.3333 0.0000  plane waves:     512
 k-point 54 :   0.4000 0.3333 0.0000  plane waves:     517
 k-point 55 :   0.4667 0.3333 0.0000  plane waves:     516
 k-point 56 :  -0.4667 0.3333 0.0000  plane waves:     515
 k-point 57 :  -0.4000 0.3333 0.0000  plane waves:     518
 k-point 58 :  -0.3333 0.3333 0.0000  plane waves:     528
 k-point 59 :   0.4000 0.4000 0.0000  plane waves:     508
 k-point 60 :   0.4667 0.4000 0.0000  plane waves:     506
 k-point 61 :  -0.4667 0.4000 0.0000  plane waves:     506
 k-point 62 :  -0.4000 0.4000 0.0000  plane waves:     510
 k-point 63 :   0.4667 0.4667 0.0000  plane waves:     516
 k-point 64 :  -0.4667 0.4667 0.0000  plane waves:     516
 k-point 65 :   0.2000 0.1333 0.0667  plane waves:     529
 k-point 66 :   0.2667 0.1333 0.0667  plane waves:     525
 k-point 67 :   0.3333 0.1333 0.0667  plane waves:     521
 k-point 68 :   0.4000 0.1333 0.0667  plane waves:     519
 k-point 69 :   0.4667 0.1333 0.0667  plane waves:     520
 k-point 70 :  -0.4667 0.1333 0.0667  plane waves:     522
 k-point 71 :   0.2667 0.2000 0.0667  plane waves:     527
 k-point 72 :   0.3333 0.2000 0.0667  plane waves:     525
 k-point 73 :   0.4000 0.2000 0.0667  plane waves:     519
 k-point 74 :   0.4667 0.2000 0.0667  plane waves:     521
 k-point 75 :  -0.4667 0.2000 0.0667  plane waves:     523
 k-point 76 :  -0.4000 0.2000 0.0667  plane waves:     518
 k-point 77 :  -0.3333 0.2000 0.0667  plane waves:     517
 k-point 78 :  -0.2667 0.2000 0.0667  plane waves:     521
 k-point 79 :  -0.2000 0.2000 0.0667  plane waves:     519
 k-point 80 :  -0.1333 0.2000 0.0667  plane waves:     523
 k-point 81 :   0.3333 0.2667 0.0667  plane waves:     521
 k-point 82 :   0.4000 0.2667 0.0667  plane waves:     519
 k-point 83 :   0.4667 0.2667 0.0667  plane waves:     518
 k-point 84 :  -0.4667 0.2667 0.0667  plane waves:     520
 k-point 85 :  -0.4000 0.2667 0.0667  plane waves:     519
 k-point 86 :  -0.3333 0.2667 0.0667  plane waves:     523
 k-point 87 :  -0.2667 0.2667 0.0667  plane waves:     520
 k-point 88 :  -0.2000 0.2667 0.0667  plane waves:     525
 k-point 89 :   0.4000 0.3333 0.0667  plane waves:     519
 k-point 90 :   0.4667 0.3333 0.0667  plane waves:     518
 k-point 91 :  -0.4667 0.3333 0.0667  plane waves:     514
 k-point 92 :  -0.4000 0.3333 0.0667  plane waves:     514
 k-point 93 :  -0.3333 0.3333 0.0667  plane waves:     517
 k-point 94 :  -0.2667 0.3333 0.0667  plane waves:     519
 k-point 95 :   0.4667 0.4000 0.0667  plane waves:     515
 k-point 96 :  -0.4667 0.4000 0.0667  plane waves:     513
 k-point 97 :  -0.4000 0.4000 0.0667  plane waves:     510
 k-point 98 :  -0.3333 0.4000 0.0667  plane waves:     514
 k-point 99 :  -0.4667 0.4667 0.0667  plane waves:     511
 k-point ** :  -0.4000 0.4667 0.0667  plane waves:     508
 k-point ** :   0.4000 0.2667 0.1333  plane waves:     524
 k-point ** :   0.4667 0.2667 0.1333  plane waves:     520
 k-point ** :  -0.4667 0.2667 0.1333  plane waves:     520
 k-point ** :  -0.4000 0.2667 0.1333  plane waves:     523
 k-point ** :   0.4667 0.3333 0.1333  plane waves:     518
 k-point ** :  -0.4667 0.3333 0.1333  plane waves:     517
 k-point ** :  -0.4000 0.3333 0.1333  plane waves:     516
 k-point ** :  -0.3333 0.3333 0.1333  plane waves:     517
 k-point ** :  -0.2667 0.3333 0.1333  plane waves:     515
 k-point ** :  -0.2000 0.3333 0.1333  plane waves:     517
 k-point ** :  -0.4667 0.4000 0.1333  plane waves:     516
 k-point ** :  -0.4000 0.4000 0.1333  plane waves:     510
 k-point ** :  -0.3333 0.4000 0.1333  plane waves:     514
 k-point ** :  -0.2667 0.4000 0.1333  plane waves:     521
 k-point ** :  -0.4000 0.4667 0.1333  plane waves:     509
 k-point ** :  -0.3333 0.4667 0.1333  plane waves:     513
 k-point ** :  -0.4000 0.4000 0.2000  plane waves:     515
 k-point ** :  -0.3333 0.4000 0.2000  plane waves:     514
 k-point ** :  -0.3333 0.4667 0.2000  plane waves:     511
 k-point ** :  -0.2667 0.4667 0.2000  plane waves:     520

 maximum and minimum number of plane-waves per node :       534      506

 maximum number of plane-waves:       534
 maximum index in each direction: 
   IXMAX=    6   IYMAX=    5   IZMAX=    5
   IXMIN=   -6   IYMIN=   -6   IZMIN=   -5

 WARNING: aliasing errors must be expected set NGX to  26 to avoid them
 WARNING: aliasing errors must be expected set NGY to  24 to avoid them
 WARNING: aliasing errors must be expected set NGZ to  22 to avoid them
 aliasing errors are usually negligible using standard VASP settings
 and one can safely disregard these warnings

 serial   3D FFT for wavefunctions
 parallel 3D FFT for charge:
    minimum data exchange during FFTs selected (reduces bandwidth)


 total amount of memory used by VASP on root node    35862. kBytes
========================================================================

   base      :      30000. kBytes
   nonl-proj :       4195. kBytes
   fftplans  :        154. kBytes
   grid      :        432. kBytes
   one-center:          6. kBytes
   wavefun   :       1075. kBytes
 
     INWAV:  cpu time    0.0000: real time    0.0000
 Broyden mixing: mesh for mixing (old mesh)
   NGX = 11   NGY = 11   NGZ = 11
  (NGX  = 36   NGY  = 36   NGZ  = 36)
  gives a total of   1331 points

 initial charge density was supplied:
 charge density of overlapping atoms calculated
 number of electron       8.0000000 magnetization 
 keeping initial charge density in first step


--------------------------------------------------------------------------------------------------------


 Maximum index for augmentation-charges          499 (set IRDMAX)


--------------------------------------------------------------------------------------------------------


 First call to EWALD:  gamma=   0.485
 Maximum number of real-space cells 3x 3x 3
 Maximum number of reciprocal cells 3x 3x 3

 FEWALD executed in parallel
    FEWALD:  cpu time    0.0020: real time    0.0021


----------------------------------------- Iteration    1(   1)  ---------------------------------------


    POTLOK:  cpu time    0.0030: real time    0.0037
    SETDIJ:  cpu time    0.0020: real time    0.0016
     EDDAV:  cpu time    0.3899: real time    0.3901
       DOS:  cpu time    0.0010: real time    0.0009
    --------------------------------------------
      LOOP:  cpu time    0.3979: real time    0.4324

 eigenvalue-minimisations  :  3936
 total energy-change (2. order) :-0.5446410E+01  (-0.2233538E+03)
 number of electron       8.0000000 magnetization 
 augmentation part        8.0000000 magnetization 

 Free energy of the ion-electron system (eV)
  ---------------------------------------------------
  alpha Z        PSCENC =         2.76051321
  Ewald energy   TEWEN  =      -213.98274834
  -Hartree energ DENC   =       -14.16697611
  -exchange      EXHF   =         0.00000000
  -V(xc)+E(xc)   XCENC  =       -19.33176188
  PAW double counting   =        65.95520812      -30.76852678
  entropy T*S    EENTRO =        -0.00061801
  eigenvalues    EBANDS =        -2.03964320
  atomic energy  EATOM  =       206.12814288
  Solvation  Ediel_sol  =         0.00000000
  ---------------------------------------------------
  free energy    TOTEN  =        -5.44641012 eV

  energy without entropy =       -5.44579211  energy(sigma->0) =       -5.44610111


--------------------------------------------------------------------------------------------------------




----------------------------------------- Iteration    1(   2)  ---------------------------------------


     EDDAV:  cpu time    0.6249: real time    0.6276
       DOS:  cpu time    0.0000: real time    0.0006
    --------------------------------------------
      LOOP:  cpu time    0.6259: real time    0.6318

 eigenvalue-minimisations  :  5712
 total energy-change (2. order) :-0.5147582E+01  (-0.5122576E+01)
 number of electron       8.0000000 magnetization 
 augmentation part        8.0000000 magnetization 

 Free energy of the ion-electron system (eV)
  ---------------------------------------------------
  alpha Z        PSCENC =         2.76051321
  Ewald energy   TEWEN  =      -213.98274834
  -Hartree energ DENC   =       -14.16697611
  -exchange      EXHF   =         0.00000000
  -V(xc)+E(xc)   XCENC  =       -19.33176188
  PAW double counting   =        65.95520812      -30.76852678
  entropy T*S    EENTRO =        -0.00000000
  eigenvalues    EBANDS =        -7.18784300
  atomic energy  EATOM  =       206.12814288
  Solvation  Ediel_sol  =         0.00000000
  ---------------------------------------------------
  free energy    TOTEN  =       -10.59399190 eV

  energy without entropy =      -10.59399190  energy(sigma->0) =      -10.59399190


--------------------------------------------------------------------------------------------------------




----------------------------------------- Iteration    1(   3)  ---------------------------------------


     EDDAV:  cpu time    0.4349: real time    0.4348
       DOS:  cpu time    0.0000: real time    0.0005
    --------------------------------------------
      LOOP:  cpu time    0.4359: real time    0.4439

 eigenvalue-minimisations  :  4256
 total energy-change (2. order) :-0.2978235E-01  (-0.2978235E-01)
 number of electron       8.0000000 magnetization 
 augmentation part        8.0000000 magnetization 

 Free energy of the ion-electron system (eV)
  ---------------------------------------------------
  alpha Z        PSCENC =         2.76051321
  Ewald energy   TEWEN  =      -213.98274834
  -Hartree energ DENC   =       -14.16697611
  -exchange      EXHF   =         0.00000000
  -V(xc)+E(xc)   XCENC  =       -19.33176188
  PAW double counting   =        65.95520812      -30.76852678
  entropy T*S    EENTRO =        -0.00000000
  eigenvalues    EBANDS =        -7.21762535
  atomic energy  EATOM  =       206.12814288
  Solvation  Ediel_sol  =         0.00000000
  ---------------------------------------------------
  free energy    TOTEN  =       -10.62377425 eV

  energy without entropy =      -10.62377425  energy(sigma->0) =      -10.62377425


--------------------------------------------------------------------------------------------------------




----------------------------------------- Iteration    1(   4)  ---------------------------------------


     EDDAV:  cpu time    0.9529: real time    0.9841
       DOS:  cpu time    0.0010: real time    0.0005
    --------------------------------------------
      LOOP:  cpu time    0.9549: real time    0.9890

 eigenvalue-minimisations  :  7168
 total energy-change (2. order) :-0.7477583E-04  (-0.7477582E-04)
 number of electron       8.0000000 magnetization 
 augmentation part        8.0000000 magnetization 

 Free energy of the ion-electron system (eV)
  ---------------------------------------------------
  alpha Z        PSCENC =         2.76051321
  Ewald energy   TEWEN  =      -213.98274834
  -Hartree energ DENC   =       -14.16697611
  -exchange      EXHF   =         0.00000000
  -V(xc)+E(xc)   XCENC  =       -19.33176188
  PAW double counting   =        65.95520812      -30.76852678
  entropy T*S    EENTRO =        -0.00000000
  eigenvalues    EBANDS =        -7.21770013
  atomic energy  EATOM  =       206.12814288
  Solvation  Ediel_sol  =         0.00000000
  ---------------------------------------------------
  free energy    TOTEN  =       -10.62384903 eV

  energy without entropy =      -10.62384903  energy(sigma->0) =      -10.62384903


--------------------------------------------------------------------------------------------------------




----------------------------------------- Iteration    1(   5)  ---------------------------------------


     EDDAV:  cpu time    0.4439: real time    0.4487
       DOS:  cpu time    0.0000: real time    0.0005
    CHARGE:  cpu time    0.0120: real time    0.0120
    MIXING:  cpu time    0.0000: real time    0.0004
    --------------------------------------------
      LOOP:  cpu time    0.4559: real time    0.4715

 eigenvalue-minimisations  :  4240
 total energy-change (2. order) :-0.3230696E-08  (-0.3229087E-08)
 number of electron       7.9999987 magnetization 
 augmentation part       -0.4654193 magnetization 

 Broyden mixing:
  rms(total) = 0.25390E+00    rms(broyden)= 0.25389E+00
  rms(prec ) = 0.69731E+00
  weight for this iteration     100.00

 Free energy of the ion-electron system (eV)
  ---------------------------------------------------
  alpha Z        PSCENC =         2.76051321
  Ewald energy   TEWEN  =      -213.98274834
  -Hartree energ DENC   =       -14.16697611
  -exchange      EXHF   =         0.00000000
  -V(xc)+E(xc)   XCENC  =       -19.33176188
  PAW double counting   =        65.95520812      -30.76852678
  entropy T*S    EENTRO =        -0.00000000
  eigenvalues    EBANDS =        -7.21770013
  atomic energy  EATOM  =       206.12814288
  Solvation  Ediel_sol  =         0.00000000
  ---------------------------------------------------
  free energy    TOTEN  =       -10.62384903 eV

  energy without entropy =      -10.62384903  energy(sigma->0) =      -10.62384903


--------------------------------------------------------------------------------------------------------




----------------------------------------- Iteration    1(   6)  ---------------------------------------


    POTLOK:  cpu time    0.0030: real time    0.0029
    SETDIJ:  cpu time    0.0010: real time    0.0013
     EDDAV:  cpu time    0.6149: real time    0.6142
       DOS:  cpu time    0.0010: real time    0.0005
    CHARGE:  cpu time    0.0110: real time    0.0117
    MIXING:  cpu time    0.0010: real time    0.0005
    --------------------------------------------
      LOOP:  cpu time    0.6329: real time    0.6346

 eigenvalue-minimisations  :  5360
 total energy-change (2. order) : 0.5759653E-01  (-0.3164982E-02)
 number of electron       7.9999987 magnetization 
 augmentation part       -0.4623976 magnetization 

 Broyden mixing:
  rms(total) = 0.15449E+00    rms(broyden)= 0.15449E+00
  rms(prec ) = 0.42474E+00
  weight for this iteration     100.00

 eigenvalues of (default mixing * dielectric matrix)
  average eigenvalue GAMMA=   2.5373
  2.5373

 Free energy of the ion-electron system (eV)
  ---------------------------------------------------
  alpha Z        PSCENC =         2.76051321
  Ewald energy   TEWEN  =      -213.98274834
  -Hartree energ DENC   =       -15.31355918
  -exchange      EXHF   =         0.00000000
  -V(xc)+E(xc)   XCENC  =       -19.15362847
  PAW double counting   =        67.82559839      -32.68541244
  entropy T*S    EENTRO =        -0.00000000
  eigenvalues    EBANDS =        -6.14515856
  atomic energy  EATOM  =       206.12814288
  Solvation  Ediel_sol  =         0.00000000
  ---------------------------------------------------
  free energy    TOTEN  =       -10.56625250 eV

  energy without entropy =      -10.56625250  energy(sigma->0) =      -10.56625250


--------------------------------------------------------------------------------------------------------




----------------------------------------- Iteration    1(   7)  ---------------------------------------


    POTLOK:  cpu time    0.0030: real time    0.0030
    SETDIJ:  cpu time    0.0010: real time    0.0013
     EDDAV:  cpu time    0.6859: real time    0.6883
       DOS:  cpu time    0.0000: real time    0.0005
    CHARGE:  cpu time    0.0120: real time    0.0118
    MIXING:  cpu time    0.0000: real time    0.0003
    --------------------------------------------
      LOOP:  cpu time    0.7019: real time    0.7138

 eigenvalue-minimisations  :  5840
 total energy-change (2. order) : 0.3161783E-01  (-0.7245194E-02)
 number of electron       7.9999987 magnetization 
 augmentation part       -0.4589513 magnetization 

 Broyden mixing:
  rms(total) = 0.11111E-01    rms(broyden)= 0.11111E-01
  rms(prec ) = 0.27949E-01
  weight for this iteration     100.00

 eigenvalues of (default mixing * dielectric matrix)
  average eigenvalue GAMMA=   2.5086
  2.5086  2.5086

 Free energy of the ion-electron system (eV)
  ---------------------------------------------------
  alpha Z        PSCENC =         2.76051321
  Ewald energy   TEWEN  =      -213.98274834
  -Hartree energ DENC   =       -17.33410199
  -exchange      EXHF   =         0.00000000
  -V(xc)+E(xc)   XCENC  =       -18.83448757
  PAW double counting   =        70.18489047      -35.10181843
  entropy T*S    EENTRO =        -0.00000000
  eigenvalues    EBANDS =        -4.35502491
  atomic energy  EATOM  =       206.12814288
  Solvation  Ediel_sol  =         0.00000000
  ---------------------------------------------------
  free energy    TOTEN  =       -10.53463467 eV

  energy without entropy =      -10.53463467  energy(sigma->0) =      -10.53463467


--------------------------------------------------------------------------------------------------------




----------------------------------------- Iteration    1(   8)  ---------------------------------------


    POTLOK:  cpu time    0.0030: real time    0.0029
    SETDIJ:  cpu time    0.0010: real time    0.0013
     EDDAV:  cpu time    0.4949: real time    0.4972
       DOS:  cpu time    0.0000: real time    0.0005
    CHARGE:  cpu time    0.0120: real time    0.0117
    MIXING:  cpu time    0.0000: real time    0.0002
    --------------------------------------------
      LOOP:  cpu time    0.5119: real time    0.5183

 eigenvalue-minimisations  :  4608
 total energy-change (2. order) :-0.1341308E-02  (-0.2316303E-03)
 number of electron       7.9999987 magnetization 
 augmentation part       -0.4592653 magnetization 

 Broyden mixing:
  rms(total) = 0.27364E-02    rms(broyden)= 0.27364E-02
  rms(prec ) = 0.87259E-02
  weight for this iteration     100.00

 eigenvalues of (default mixing * dielectric matrix)
  average eigenvalue GAMMA=   2.1768
  1.1356  2.3975  2.9973

 Free energy of the ion-electron system (eV)
  ---------------------------------------------------
  alpha Z        PSCENC =         2.76051321
  Ewald energy   TEWEN  =      -213.98274834
  -Hartree energ DENC   =       -17.30904073
  -exchange      EXHF   =         0.00000000
  -V(xc)+E(xc)   XCENC  =       -18.83542365
  PAW double counting   =        69.48872224      -34.38631857
  entropy T*S    EENTRO =        -0.00000000
  eigenvalues    EBANDS =        -4.39982303
  atomic energy  EATOM  =       206.12814288
  Solvation  Ediel_sol  =         0.00000000
  ---------------------------------------------------
  free energy    TOTEN  =       -10.53597598 eV

  energy without entropy =      -10.53597598  energy(sigma->0) =      -10.53597598


--------------------------------------------------------------------------------------------------------




----------------------------------------- Iteration    1(   9)  ---------------------------------------


    POTLOK:  cpu time    0.0030: real time    0.0031
    SETDIJ:  cpu time    0.0010: real time    0.0013
     EDDAV:  cpu time    0.7869: real time    0.7866
       DOS:  cpu time    0.0010: real time    0.0005
    CHARGE:  cpu time    0.0120: real time    0.0117
    MIXING:  cpu time    0.0000: real time    0.0002
    --------------------------------------------
      LOOP:  cpu time    0.8049: real time    0.8120

 eigenvalue-minimisations  :  6464
 total energy-change (2. order) :-0.1603482E-03  (-0.1827051E-04)
 number of electron       7.9999987 magnetization 
 augmentation part       -0.4593277 magnetization 

 Broyden mixing:
  rms(total) = 0.12084E-02    rms(broyden)= 0.12084E-02
  rms(prec ) = 0.31656E-02
  weight for this iteration     100.00

 eigenvalues of (default mixing * dielectric matrix)
  average eigenvalue GAMMA=   2.2674
  0.9535  3.1044  2.5059  2.5059

 Free energy of the ion-electron system (eV)
  ---------------------------------------------------
  alpha Z        PSCENC =         2.76051321
  Ewald energy   TEWEN  =      -213.98274834
  -Hartree energ DENC   =       -17.35281441
  -exchange      EXHF   =         0.00000000
  -V(xc)+E(xc)   XCENC  =       -18.82843556
  PAW double counting   =        69.39275062      -34.28759445
  entropy T*S    EENTRO =        -0.00000000
  eigenvalues    EBANDS =        -4.36595029
  atomic energy  EATOM  =       206.12814288
  Solvation  Ediel_sol  =         0.00000000
  ---------------------------------------------------
  free energy    TOTEN  =       -10.53613633 eV

  energy without entropy =      -10.53613633  energy(sigma->0) =      -10.53613633


--------------------------------------------------------------------------------------------------------




----------------------------------------- Iteration    1(  10)  ---------------------------------------


    POTLOK:  cpu time    0.0030: real time    0.0029
    SETDIJ:  cpu time    0.0010: real time    0.0013
     EDDAV:  cpu time    0.5289: real time    0.5313
       DOS:  cpu time    0.0000: real time    0.0005
    CHARGE:  cpu time    0.0120: real time    0.0118
    MIXING:  cpu time    0.0000: real time    0.0002
    --------------------------------------------
      LOOP:  cpu time    0.5449: real time    0.5525

 eigenvalue-minimisations  :  4816
 total energy-change (2. order) :-0.1331734E-04  (-0.2131510E-05)
 number of electron       7.9999987 magnetization 
 augmentation part       -0.4592153 magnetization 

 Broyden mixing:
  rms(total) = 0.25111E-03    rms(broyden)= 0.25110E-03
  rms(prec ) = 0.70081E-03
  weight for this iteration     100.00

 eigenvalues of (default mixing * dielectric matrix)
  average eigenvalue GAMMA=   2.0915
  3.3639  2.6876  2.2331  0.9470  1.2259

 Free energy of the ion-electron system (eV)
  ---------------------------------------------------
  alpha Z        PSCENC =         2.76051321
  Ewald energy   TEWEN  =      -213.98274834
  -Hartree energ DENC   =       -17.36645340
  -exchange      EXHF   =         0.00000000
  -V(xc)+E(xc)   XCENC  =       -18.82784957
  PAW double counting   =        69.45859114      -34.35559498
  entropy T*S    EENTRO =        -0.00000000
  eigenvalues    EBANDS =        -4.35075058
  atomic energy  EATOM  =       206.12814288
  Solvation  Ediel_sol  =         0.00000000
  ---------------------------------------------------
  free energy    TOTEN  =       -10.53614964 eV

  energy without entropy =      -10.53614964  energy(sigma->0) =      -10.53614964


--------------------------------------------------------------------------------------------------------




----------------------------------------- Iteration    1(  11)  ---------------------------------------


    POTLOK:  cpu time    0.0020: real time    0.0029
    SETDIJ:  cpu time    0.0020: real time    0.0013
     EDDAV:  cpu time    0.8349: real time    0.8384
       DOS:  cpu time    0.0010: real time    0.0005
    CHARGE:  cpu time    0.0110: real time    0.0116
    MIXING:  cpu time    0.0000: real time    0.0003
    --------------------------------------------
      LOOP:  cpu time    0.8529: real time    0.8642

 eigenvalue-minimisations  :  6672
 total energy-change (2. order) : 0.1036299E-05  (-0.1268950E-06)
 number of electron       7.9999987 magnetization 
 augmentation part       -0.4592367 magnetization 

 Broyden mixing:
  rms(total) = 0.43814E-04    rms(broyden)= 0.43812E-04
  rms(prec ) = 0.73127E-04
  weight for this iteration     100.00

 eigenvalues of (default mixing * dielectric matrix)
  average eigenvalue GAMMA=   2.1505
  3.3412  2.8315  2.5381  2.2237  0.9550  1.0132

 Free energy of the ion-electron system (eV)
  ---------------------------------------------------
  alpha Z        PSCENC =         2.76051321
  Ewald energy   TEWEN  =      -213.98274834
  -Hartree energ DENC   =       -17.36377905
  -exchange      EXHF   =         0.00000000
  -V(xc)+E(xc)   XCENC  =       -18.82808095
  PAW double counting   =        69.43573642      -34.33203690
  entropy T*S    EENTRO =        -0.00000000
  eigenvalues    EBANDS =        -4.35389589
  atomic energy  EATOM  =       206.12814288
  Solvation  Ediel_sol  =         0.00000000
  ---------------------------------------------------
  free energy    TOTEN  =       -10.53614861 eV

  energy without entropy =      -10.53614861  energy(sigma->0) =      -10.53614861


--------------------------------------------------------------------------------------------------------




----------------------------------------- Iteration    1(  12)  ---------------------------------------


    POTLOK:  cpu time    0.0020: real time    0.0029
    SETDIJ:  cpu time    0.0010: real time    0.0013
     EDDAV:  cpu time    0.3769: real time    0.3758
       DOS:  cpu time    0.0000: real time    0.0007
    --------------------------------------------
      LOOP:  cpu time    0.3819: real time    0.3852

 eigenvalue-minimisations  :  3424
 total energy-change (2. order) : 0.8149800E-07  (-0.4789615E-08)
 number of electron       7.9999987 magnetization 
 augmentation part       -0.4592367 magnetization 

 Free energy of the ion-electron system (eV)
  ---------------------------------------------------
  alpha Z        PSCENC =         2.76051321
  Ewald energy   TEWEN  =      -213.98274834
  -Hartree energ DENC   =       -17.36399665
  -exchange      EXHF   =         0.00000000
  -V(xc)+E(xc)   XCENC  =       -18.82806129
  PAW double counting   =        69.43546723      -34.33170116
  entropy T*S    EENTRO =        -0.00000000
  eigenvalues    EBANDS =        -4.35376440
  atomic energy  EATOM  =       206.12814288
  Solvation  Ediel_sol  =         0.00000000
  ---------------------------------------------------
  free energy    TOTEN  =       -10.53614853 eV

  energy without entropy =      -10.53614853  energy(sigma->0) =      -10.53614853


--------------------------------------------------------------------------------------------------------




 average (electrostatic) potential at core
  the test charge radii are     0.9892
  (the norm of the test charge is              1.0000)
       1 -85.3220       2 -85.3220
 
 
 
 E-fermi :   4.4688     XC(G=0):  -8.6543     alpha+bet : -9.8341


 k-point     1 :       0.0000    0.0000    0.0000
  band No.  band energies     occupation 
      1      -6.7138      2.00000
      2       4.0033      2.00000
      3       4.0033      2.00000
      4       4.0033      2.00000
      5       5.2602      0.00000
      6       6.4675      0.00000
      7       6.4675      0.00000
      8       6.4675      0.00000
      9      11.2335      0.00000
     10      11.6249      0.00000
     11      11.6249      0.00000
     12      14.6175      0.00000
     13      14.6175      0.00000
     14      14.6175      0.00000
     15      18.2667      0.00000
     16      24.9298      0.00000

 k-point     2 :       0.0667    0.0000    0.0000
  band No.  band energies     occupation 
      1      -6.6648      2.00000
      2       3.3232      2.00000
      3       3.9268      2.00000
      4       3.9268      2.00000
      5       5.6406      0.00000
      6       6.5805      0.00000
      7       6.5806      0.00000
      8       6.6880      0.00000
      9      11.4492      0.00000
     10      11.4678      0.00000
     11      11.4678      0.00000
     12      14.4287      0.00000
     13      14.9412      0.00000
     14      14.9412      0.00000
     15      18.6107      0.00000
     16      24.0264      0.00000

 k-point     3 :       0.1333    0.0000    0.0000
  band No.  band energies     occupation 
      1      -6.5192      2.00000
      2       2.2355      2.00000
      3       3.7414      2.00000
      4       3.7415      2.00000
      5       5.6867      0.00000
      6       6.8555      0.00000
      7       6.8555      0.00000
      8       7.5370      0.00000
      9      11.1824      0.00000
     10      11.1824      0.00000
     11      11.9928      0.00000
     12      14.0890      0.00000
     13      15.7385      0.00000
     14      15.7385      0.00000
     15      19.4432      0.00000
     16      22.7375      0.00000

 k-point     4 :       0.2000    0.0000    0.0000
  band No.  band energies     occupation 
      1      -6.2809      2.00000
      2       1.1349      2.00000
      3       3.5221      2.00000
      4       3.5221      2.00000
      5       5.4913      0.00000
      6       7.1575      0.00000
      7       7.1576      0.00000
      8       8.6186      0.00000
      9      11.0397      0.00000
     10      11.0397      0.00000
     11      12.4418      0.00000
     12      14.1401      0.00000
     13      16.7629      0.00000
     14      16.7629      0.00000
     15      20.2234      0.00000
     16      21.2552      0.00000

 k-point     5 :       0.2667    0.0000    0.0000
  band No.  band energies     occupation 
      1      -5.9594      2.00000
      2       0.0941      2.00000
      3       3.3181      2.00000
      4       3.3181      2.00000
      5       5.2692      0.00000
      6       7.3602      0.00000
      7       7.3602      0.00000
      8       9.7225      0.00000
      9      11.2027      0.00000
     10      11.2027      0.00000
     11      12.3756      0.00000
     12      14.9767      0.00000
     13      17.6715      0.00000
     14      17.6715      0.00000
     15      19.6033      0.00000
     16      20.0162      0.00000

 k-point     6 :       0.3333    0.0000    0.0000
  band No.  band energies     occupation 
      1      -5.5747      2.00000
      2      -0.8430      2.00000
      3       3.1540      2.00000
      4       3.1540      2.00000
      5       5.0800      0.00000
      6       7.4240      0.00000
      7       7.4240      0.00000
      8      10.7554      0.00000
      9      11.7232      0.00000
     10      11.7232      0.00000
     11      12.2308      0.00000
     12      15.9374      0.00000
     13      17.3221      0.00000
     14      17.3221      0.00000
     15      18.7705      0.00000
     16      20.2347      0.00000

 k-point     7 :       0.4000    0.0000    0.0000
  band No.  band energies     occupation 
      1      -5.1760      2.00000
      2      -1.6155      2.00000
      3       3.0409      2.00000
      4       3.0409      2.00000
      5       4.9462      0.00000
      6       7.4060      0.00000
      7       7.4060      0.00000
      8      11.3489      0.00000
      9      12.5451      0.00000
     10      12.5451      0.00000
     11      12.5898      0.00000
     12      15.8376      0.00000
     13      16.0827      0.00000
     14      16.0827      0.00000
     15      19.1841      0.00000
     16      21.5247      0.00000

 k-point     8 :       0.4667    0.0000    0.0000
  band No.  band energies     occupation 
      1      -4.8833      2.00000
      2      -2.0969      2.00000
      3       2.9834      2.00000
      4       2.9834      2.00000
      5       4.8774      0.00000
      6       7.3780      0.00000
      7       7.3780      0.00000
      8      11.4129      0.00000
      9      13.5504      0.00000
     10      13.5805      0.00000
     11      13.5805      0.00000
     12      14.7889      0.00000
     13      14.7889      0.00000
     14      14.8801      0.00000
     15      20.6429      0.00000
     16      22.5915      0.00000

 k-point     9 :       0.0667    0.0667    0.0000
  band No.  band energies     occupation 
      1      -6.6484      2.00000
      2       3.3256      2.00000
      3       3.7755      2.00000
      4       3.7755      2.00000
      5       5.9206      0.00000
      6       6.3169      0.00000
      7       6.7766      0.00000
      8       6.7766      0.00000
      9      11.1579      0.00000
     10      11.5206      0.00000
     11      11.7001      0.00000
     12      14.7375      0.00000
     13      14.7375      0.00000
     14      14.9420      0.00000
     15      18.7439      0.00000
     16      23.8230      0.00000

 k-point    10 :       0.1333    0.0667    0.0000
  band No.  band energies     occupation 
      1      -6.5348      2.00000
      2       2.4859      2.00000
      3       3.5492      2.00000
      4       3.6425      2.00000
      5       6.1153      0.00000
      6       6.3727      0.00000
      7       7.1087      0.00000
      8       7.3822      0.00000
      9      10.7747      0.00000
     10      11.6448      0.00000
     11      11.9658      0.00000
     12      14.4627      0.00000
     13      15.1623      0.00000
     14      15.7004      0.00000
     15      19.4430      0.00000
     16      22.6709      0.00000

 k-point    11 :       0.2000    0.0667    0.0000
  band No.  band energies     occupation 
      1      -6.3268      2.00000
[...]
      5       5.4387      0.00000
      6       6.0998      0.00000
      7      11.3820      0.00000
      8      11.4637      0.00000
      9      13.0047      0.00000
     10      13.6072      0.00000
     11      15.3070      0.00000
     12      16.0293      0.00000
     13      17.2219      0.00000
     14      17.4153      0.00000
     15      19.9061      0.00000
     16      20.2226      0.00000

 k-point   101 :       0.4000    0.2667    0.1333
  band No.  band energies     occupation 
      1      -5.4584      2.00000
      2      -0.4346      2.00000
      3       1.6427      2.00000
      4       2.6776      2.00000
      5       6.4299      0.00000
      6       7.1318      0.00000
      7       8.1790      0.00000
      8       9.1836      0.00000
      9      11.2764      0.00000
     10      13.5399      0.00000
     11      13.9671      0.00000
     12      15.5955      0.00000
     13      16.6832      0.00000
     14      17.8658      0.00000
     15      18.3611      0.00000
     16      20.5354      0.00000

 k-point   102 :       0.4667    0.2667    0.1333
  band No.  band energies     occupation 
      1      -5.0766      2.00000
      2      -1.0856      2.00000
      3       1.2937      2.00000
      4       2.4603      2.00000
      5       6.6631      0.00000
      6       7.2950      0.00000
      7       8.1862      0.00000
      8       9.5341      0.00000
      9      11.7630      0.00000
     10      13.3242      0.00000
     11      14.6616      0.00000
     12      15.6617      0.00000
     13      16.8640      0.00000
     14      17.6942      0.00000
     15      18.9575      0.00000
     16      20.4728      0.00000

 k-point   103 :      -0.4667    0.2667    0.1333
  band No.  band energies     occupation 
      1      -4.6734      2.00000
      2      -1.7083      2.00000
      3       1.0954      2.00000
      4       2.2736      2.00000
      5       6.6896      0.00000
      6       7.3242      0.00000
      7       8.7648      0.00000
      8       9.6771      0.00000
      9      12.2036      0.00000
     10      12.6249      0.00000
     11      15.2087      0.00000
     12      15.7827      0.00000
     13      16.6661      0.00000
     14      18.1745      0.00000
     15      19.7971      0.00000
     16      20.2514      0.00000

 k-point   104 :      -0.4000    0.2667    0.1333
  band No.  band energies     occupation 
      1      -4.3664      2.00000
      2      -2.1369      2.00000
      3       1.0078      2.00000
      4       2.1683      2.00000
      5       6.6877      0.00000
      6       7.2551      0.00000
      7       9.4207      0.00000
      8      10.0061      0.00000
      9      11.0602      0.00000
     10      13.5980      0.00000
     11      14.7447      0.00000
     12      15.4815      0.00000
     13      17.2935      0.00000
     14      18.6846      0.00000
     15      19.6064      0.00000
     16      20.7374      0.00000

 k-point   105 :       0.4667    0.3333    0.1333
  band No.  band energies     occupation 
      1      -4.9204      2.00000
      2      -1.2205      2.00000
      3       1.3350      2.00000
      4       2.0812      2.00000
      5       6.2018      0.00000
      6       7.0334      0.00000
      7       8.4615      0.00000
      8      10.3133      0.00000
      9      12.3117      0.00000
     10      13.6026      0.00000
     11      14.7279      0.00000
     12      16.3061      0.00000
     13      16.7181      0.00000
     14      17.4483      0.00000
     15      18.7100      0.00000
     16      19.9232      0.00000

 k-point   106 :      -0.4667    0.3333    0.1333
  band No.  band energies     occupation 
      1      -4.5153      2.00000
      2      -1.7663      2.00000
      3       1.0241      2.00000
      4       1.8847      2.00000
      5       6.4867      0.00000
      6       7.5147      0.00000
      7       8.2322      0.00000
      8      10.6273      0.00000
      9      12.4090      0.00000
     10      12.9620      0.00000
     11      15.6763      0.00000
     12      16.0148      0.00000
     13      17.1098      0.00000
     14      17.5171      0.00000
     15      19.2824      0.00000
     16      20.2804      0.00000

 k-point   107 :      -0.4000    0.3333    0.1333
  band No.  band energies     occupation 
      1      -4.1498      2.00000
      2      -2.2205      2.00000
      3       0.8057      2.00000
      4       1.7926      2.00000
      5       6.6038      0.00000
      6       7.9682      0.00000
      7       8.4949      0.00000
      8      10.5582      0.00000
      9      11.2912      0.00000
     10      13.8744      0.00000
     11      14.8371      0.00000
     12      16.3751      0.00000
     13      17.5387      0.00000
     14      18.4929      0.00000
     15      19.7397      0.00000
     16      20.6914      0.00000

 k-point   108 :      -0.3333    0.3333    0.1333
  band No.  band energies     occupation 
      1      -4.0369      2.00000
      2      -2.3522      2.00000
      3       0.6904      2.00000
      4       1.8272      2.00000
      5       6.7406      0.00000
      6       7.8143      0.00000
      7       9.5763      0.00000
      8       9.7800      0.00000
      9      10.8640      0.00000
     10      13.5540      0.00000
     11      15.1503      0.00000
     12      16.3838      0.00000
     13      18.2190      0.00000
     14      18.9467      0.00000
     15      19.4703      0.00000
     16      20.0082      0.00000

 k-point   109 :      -0.2667    0.3333    0.1333
  band No.  band energies     occupation 
      1      -4.2899      2.00000
      2      -2.0505      2.00000
      3       0.7066      2.00000
      4       1.9750      2.00000
      5       6.9243      0.00000
      6       7.6733      0.00000
      7       8.7598      0.00000
      8      10.4916      0.00000
      9      11.0295      0.00000
     10      12.5756      0.00000
     11      16.1417      0.00000
     12      16.3893      0.00000
     13      17.8509      0.00000
     14      17.9143      0.00000
     15      19.2104      0.00000
     16      20.3657      0.00000

 k-point   110 :      -0.2000    0.3333    0.1333
  band No.  band energies     occupation 
      1      -4.6863      2.00000
      2      -1.5658      2.00000
      3       0.8961      2.00000
      4       2.2041      2.00000
      5       7.1166      0.00000
      6       7.3345      0.00000
      7       8.1701      0.00000
      8      10.2100      0.00000
      9      11.9367      0.00000
     10      12.2053      0.00000
     11      15.8444      0.00000
     12      16.5238      0.00000
     13      16.7893      0.00000
     14      17.6799      0.00000
     15      19.1657      0.00000
     16      20.3654      0.00000

 k-point   111 :      -0.4667    0.4000    0.1333
  band No.  band energies     occupation 
      1      -4.2865      2.00000
      2      -2.0161      2.00000
      3       1.1651      2.00000
      4       1.6062      2.00000
      5       6.0898      0.00000
      6       6.6093      0.00000
      7       9.2886      0.00000
      8      11.3562      0.00000
      9      12.7457      0.00000
     10      13.4004      0.00000
     11      15.4268      0.00000
     12      16.3401      0.00000
     13      16.7801      0.00000
     14      17.9037      0.00000
     15      19.1141      0.00000
     16      19.6583      0.00000

 k-point   112 :      -0.4000    0.4000    0.1333
  band No.  band energies     occupation 
      1      -3.8856      2.00000
      2      -2.4549      2.00000
      3       0.8811      2.00000
      4       1.4781      2.00000
      5       6.3582      0.00000
      6       7.2727      0.00000
      7       9.0608      0.00000
      8      11.0032      0.00000
      9      12.0976      0.00000
     10      13.9755      0.00000
     11      14.9314      0.00000
     12      16.7613      0.00000
     13      17.5959      0.00000
     14      18.1303      0.00000
     15      19.6086      0.00000
     16      20.1763      0.00000

 k-point   113 :      -0.3333    0.4000    0.1333
  band No.  band energies     occupation 
      1      -3.6773      2.00000
      2      -2.6658      2.00000
      3       0.6395      2.00000
      4       1.5328      2.00000
      5       6.5061      0.00000
      6       8.3343      0.00000
      7       8.8556      0.00000
      8       9.8876      0.00000
      9      11.9229      0.00000
     10      13.5472      0.00000
     11      15.3194      0.00000
     12      17.0000      0.00000
     13      17.9701      0.00000
     14      18.9330      0.00000
     15      19.6796      0.00000
     16      20.3789      0.00000

 k-point   114 :      -0.2667    0.4000    0.1333
  band No.  band energies     occupation 
      1      -3.9012      2.00000
      2      -2.4310      2.00000
      3       0.5592      2.00000
      4       1.7114      2.00000
      5       6.7042      0.00000
      6       8.5382      0.00000
      7       8.9407      0.00000
      8       9.5440      0.00000
      9      11.5110      0.00000
     10      12.8161      0.00000
     11      16.0619      0.00000
     12      17.2907      0.00000
     13      17.5627      0.00000
     14      18.7453      0.00000
     15      19.2654      0.00000
     16      20.4362      0.00000

 k-point   115 :      -0.4000    0.4667    0.1333
  band No.  band energies     occupation 
      1      -3.5748      2.00000
      2      -2.8089      2.00000
      3       1.1470      2.00000
      4       1.2920      2.00000
      5       6.1142      0.00000
      6       6.2871      0.00000
      7      10.2480      0.00000
      8      11.2252      0.00000
      9      12.9595      0.00000
     10      13.8774      0.00000
     11      15.0816      0.00000
     12      15.9937      0.00000
     13      17.4570      0.00000
     14      18.6517      0.00000
     15      19.2371      0.00000
     16      20.1921      0.00000

 k-point   116 :      -0.3333    0.4667    0.1333
  band No.  band energies     occupation 
      1      -3.3444      2.00000
      2      -3.0139      2.00000
      3       0.8430      2.00000
      4       1.3266      2.00000
      5       6.3144      0.00000
      6       7.1758      0.00000
      7       9.9797      0.00000
      8      10.0996      0.00000
      9      12.8677      0.00000
     10      13.5895      0.00000
     11      15.3182      0.00000
     12      16.1489      0.00000
     13      18.5204      0.00000
     14      19.0110      0.00000
     15      19.4429      0.00000
     16      19.7070      0.00000

 k-point   117 :      -0.4000    0.4000    0.2000
  band No.  band energies     occupation 
      1      -4.1109      2.00000
      2      -2.1976      2.00000
      3       0.7877      2.00000
      4       1.5960      2.00000
      5       7.2326      0.00000
      6       7.6264      0.00000
      7       7.9830      0.00000
      8      10.8388      0.00000
      9      11.6971      0.00000
     10      13.1402      0.00000
     11      15.8018      0.00000
     12      17.0004      0.00000
     13      17.2164      0.00000
     14      18.1241      0.00000
     15      18.8952      0.00000
     16      20.9359      0.00000

 k-point   118 :      -0.3333    0.4000    0.2000
  band No.  band energies     occupation 
      1      -3.7680      2.00000
      2      -2.5579      2.00000
      3       0.6809      2.00000
      4       1.4219      2.00000
      5       7.5012      0.00000
      6       7.7260      0.00000
      7       8.5245      0.00000
      8       9.6811      0.00000
      9      11.9349      0.00000
     10      13.7743      0.00000
     11      15.1272      0.00000
     12      16.9127      0.00000
     13      17.8226      0.00000
     14      19.0879      0.00000
     15      19.5872      0.00000
     16      20.6733      0.00000

 k-point   119 :      -0.3333    0.4667    0.2000
  band No.  band energies     occupation 
      1      -3.4856      2.00000
      2      -2.8399      2.00000
      3       0.8618      2.00000
      4       1.1330      2.00000
      5       7.2494      0.00000
      6       7.3964      0.00000
      7       8.8220      0.00000
      8       9.8330      0.00000
      9      12.8431      0.00000
     10      13.7915      0.00000
     11      15.2000      0.00000
     12      16.1176      0.00000
     13      18.4902      0.00000
     14      19.3703      0.00000
     15      19.4963      0.00000
     16      20.3820      0.00000

 k-point   120 :      -0.2667    0.4667    0.2000
  band No.  band energies     occupation 
      1      -3.4026      2.00000
      2      -2.9114      2.00000
      3       0.7472      2.00000
      4       1.1467      2.00000
      5       7.4809      0.00000
      6       8.4405      0.00000
      7       8.5647      0.00000
      8       8.6954      0.00000
      9      12.8315      0.00000
     10      13.6882      0.00000
     11      15.2771      0.00000
     12      16.1816      0.00000
     13      18.6113      0.00000
     14      19.4050      0.00000
     15      20.2265      0.00000
     16      20.3955      0.00000


--------------------------------------------------------------------------------------------------------


 soft charge-density along one line, spin component           1
         0         1         2         3         4         5         6         7         8         9
 total charge-density along one line
 
 pseudopotential strength for first ion, spin component:           1
 18.627   0.001  -0.000  -0.000  -0.000   0.000   0.000   0.000
  0.001   0.006   0.000   0.000   0.000  -0.000  -0.000  -0.000
 -0.000   0.000   4.200  -0.000  -0.000  -0.003   0.000   0.000
 -0.000   0.000  -0.000   4.200  -0.000   0.000  -0.003   0.000
 -0.000   0.000  -0.000  -0.000   4.200   0.000   0.000  -0.003
  0.000  -0.000  -0.003   0.000   0.000   0.005  -0.000  -0.000
  0.000  -0.000   0.000  -0.003   0.000  -0.000   0.005  -0.000
  0.000  -0.000   0.000   0.000  -0.003  -0.000  -0.000   0.005
 total augmentation occupancy for first ion, spin component:           1
  1.545  -0.555  -0.000  -0.000  -0.000   0.000  -0.000  -0.000
 -0.555   0.499   0.000  -0.000   0.000   0.000  -0.000  -0.000
 -0.000   0.000   0.905  -0.000   0.000  -0.464  -0.000   0.000
 -0.000   0.000   0.000   0.905   0.000   0.000  -0.464   0.000
  0.000  -0.000  -0.000  -0.000   0.905  -0.000   0.000  -0.464
 -0.000   0.000  -0.464  -0.000  -0.000   0.279   0.000   0.000
 -0.000   0.000  -0.000  -0.464   0.000   0.000   0.279   0.000
  0.000   0.000   0.000   0.000  -0.464   0.000   0.000   0.279


------------------------ aborting loop because EDIFF is reached ----------------------------------------


    CHARGE:  cpu time    0.0110: real time    0.0116
    FORLOC:  cpu time    0.0000: real time    0.0001
    FORNL :  cpu time    0.0150: real time    0.0153
    STRESS:  cpu time    0.1930: real time    0.1926
    FORCOR:  cpu time    0.0020: real time    0.0029
    FORHAR:  cpu time    0.0010: real time    0.0008
    MIXING:  cpu time    0.0000: real time    0.0003
    OFIELD:  cpu time    0.0000: real time    0.0000

  FORCE on cell =-STRESS in cart. coord.  units (eV):
  Direction    XX          YY          ZZ          XY          YZ          ZX
  --------------------------------------------------------------------------------------
  Alpha Z     2.76051     2.76051     2.76051
  Ewald     -71.32761   -71.32761   -71.32761    -0.00000    -0.00000    -0.00000
  Hartree     5.78797     5.78797     5.78797     0.00000     0.00000     0.00000
  E(xc)     -24.33382   -24.33382   -24.33382    -0.00000    -0.00000    -0.00000
  Local     -32.27730   -32.27730   -32.27730     0.00004     0.00004     0.00004
  n-local    76.13065    77.64044    71.97045     1.89207    -1.06707     0.36528
  augment   -11.71898   -11.71898   -11.71898    -0.00004    -0.00004    -0.00004
  Kinetic    54.74003    53.46224    49.63501     3.59512    -0.97063     1.03063
  Fock        0.00000     0.00000     0.00000     0.00000     0.00000     0.00000
  -------------------------------------------------------------------------------------
  Total      -3.24963    -3.24963    -3.24963     0.00000     0.00000     0.00000
  in kB    -106.73850  -106.73850  -106.73850     0.00000     0.00000     0.00000
  external pressure =     -106.74 kB  Pullay stress =        0.00 kB


 VOLUME and BASIS-vectors are now :
 -----------------------------------------------------------------------------
  energy-cutoff  :      280.00
  volume of cell :       48.78
      direct lattice vectors                 reciprocal lattice vectors
     0.000000000  2.900000000  2.900000000    -0.172413793  0.172413793  0.172413793
     2.900000000  0.000000000  2.900000000     0.172413793 -0.172413793  0.172413793
     2.900000000  2.900000000  0.000000000     0.172413793  0.172413793 -0.172413793

  length of vectors
     4.101219331  4.101219331  4.101219331     0.298629450  0.298629450  0.298629450


 FORCES acting on ions
    electron-ion (+dipol)            ewald-force                    non-local-force                 convergence-correction
 -----------------------------------------------------------------------------------------------
   0.763E-06 0.763E-06 0.899E-06   0.103E-13 0.934E-14 0.112E-13   -.763E-16 -.486E-16 0.486E-16   0.241E-08 0.241E-08 0.241E-08
   -.763E-06 -.763E-06 -.899E-06   -.104E-13 -.931E-14 -.113E-13   -.104E-15 -.104E-16 -.108E-15   -.241E-08 -.241E-08 -.241E-08
 -----------------------------------------------------------------------------------------------
   0.716E-14 0.761E-13 -.915E-14   -.132E-15 0.271E-16 -.909E-16   -.180E-15 -.590E-16 -.590E-16   0.103E-14 0.127E-14 0.224E-14
 
 
 POSITION                                       TOTAL-FORCE (eV/Angst)
 -----------------------------------------------------------------------------------
      5.07500      5.07500      5.07500         0.000000      0.000000      0.000000
      0.72500      0.72500      0.72500        -0.000000     -0.000000     -0.000000
 -----------------------------------------------------------------------------------
    total drift:                                0.000000      0.000000     -0.000000


--------------------------------------------------------------------------------------------------------



  FREE ENERGIE OF THE ION-ELECTRON SYSTEM (eV)
  ---------------------------------------------------
  free  energy   TOTEN  =       -10.53614853 eV

  energy  without entropy=      -10.53614853  energy(sigma->0) =      -10.53614853
 


--------------------------------------------------------------------------------------------------------


    POTLOK:  cpu time    0.0040: real time    0.0044


--------------------------------------------------------------------------------------------------------


 writing wavefunctions
     LOOP+:  cpu time    7.6608: real time    7.8562
    4ORBIT:  cpu time    0.0000: real time    0.0000

 total amount of memory used by VASP on root node    35862. kBytes
========================================================================

   base      :      30000. kBytes
   nonl-proj :       4195. kBytes
   fftplans  :        154. kBytes
   grid      :        432. kBytes
   one-center:          6. kBytes
   wavefun   :       1075. kBytes
 
  
  
 General timing and accounting informations for this job:
 ========================================================
  
                  Total CPU time used (sec):        8.420
                            User time (sec):        8.288
                          System time (sec):        0.132
                         Elapsed time (sec):        9.067
  
                   Maximum memory used (kb):       80336.
                   Average memory used (kb):           0.
  
                          Minor page faults:        14104
                          Major page faults:            0
                 Voluntary context switches:         2959
