 vasp.5.4.1 24Jun15 (build May 02 2016 14:41:14) complex                        
  
 executed on           IFC91_ompi date 2022.05.07  11:08:53
 running on   16 total cores
 distrk:  each k-point on   16 cores,    1 groups
 distr:  one band on NCORES_PER_BAND=   1 cores,   16 groups


--------------------------------------------------------------------------------------------------------


 INCAR:
 POTCAR:   PAW_PBE Si 05Jan2001                   

 ----------------------------------------------------------------------------- 
|                                                                             |
|           W    W    AA    RRRRR   N    N  II  N    N   GGGG   !!!           |
|           W    W   A  A   R    R  NN   N  II  NN   N  G    G  !!!           |
|           W    W  A    A  R    R  N N  N  II  N N  N  G       !!!           |
|           W WW W  AAAAAA  RRRRR   N  N N  II  N  N N  G  GGG   !            |
|           WW  WW  A    A  R   R   N   NN  II  N   NN  G    G                |
|           W    W  A    A  R    R  N    N  II  N    N   GGGG   !!!           |
|                                                                             |
|      For optimal performance we recommend to set                            |
|        NCORE= 4 - approx SQRT( number of cores)                             |
|      NCORE specifies how many cores store one orbital (NPAR=cpu/NCORE).     |
|      This setting can  greatly improve the performance of VASP for DFT.     |
|      The default, NPAR=number of cores might be grossly inefficient         |
|      on modern multi-core architectures or massively parallel machines.     |
|      Do your own testing !!!!                                               |
|      Unfortunately you need to use the default for GW and RPA calculations. |
|      (for HF NCORE is supported but not extensively tested yet)             |
|                                                                             |
 ----------------------------------------------------------------------------- 

 POTCAR:   PAW_PBE Si 05Jan2001                   
   VRHFIN =Si: s2p2                                                             
   LEXCH  = PE                                                                  
   EATOM  =   103.0669 eV,    7.5752 Ry                                         
                                                                                
   TITEL  = PAW_PBE Si 05Jan2001                                                
   LULTRA =        F    use ultrasoft PP ?                                      
   IUNSCR =        1    unscreen: 0-lin 1-nonlin 2-no                           
   RPACOR =    1.500    partial core radius                                     
   POMASS =   28.085; ZVAL   =    4.000    mass and valenz                      
   RCORE  =    1.900    outmost cutoff radius                                   
   RWIGS  =    2.480; RWIGS  =    1.312    wigner-seitz radius (au A)           
   ENMAX  =  245.345; ENMIN  =  184.009 eV                                      
   ICORE  =        2    local potential                                         
   LCOR   =        T    correct aug charges                                     
   LPAW   =        T    paw PP                                                  
   EAUG   =  322.069                                                            
   DEXC   =    -.007                                                            
   RMAX   =    2.944    core radius for proj-oper                               
   RAUG   =    1.300    factor for augmentation sphere                          
   RDEP   =    1.993    radius for radial grids                                 
   QCUT   =   -4.246; QGAM   =    8.493    optimization parameters              
                                                                                
   Description                                                                  
     l     E      TYP  RCUT    TYP  RCUT                                        
     0   .000     23  1.900                                                     
     0   .000     23  1.900                                                     
     1   .000     23  1.900                                                     
     1   .000     23  1.900                                                     
     2   .000      7  1.900                                                     
  local pseudopotential read in
  partial core-charges read in
  atomic valenz-charges read in
  non local Contribution for L=           0  read in
    real space projection operators read in
  non local Contribution for L=           0  read in
    real space projection operators read in
  non local Contribution for L=           1  read in
    real space projection operators read in
  non local Contribution for L=           1  read in
    real space projection operators read in
    PAW grid and wavefunctions read in
 
   number of l-projection  operators is LMAX  =           4
   number of lm-projection operators is LMMAX =           8
 
 PAW_PBE Si 05Jan2001                   :
 energy of atom  1       EATOM= -103.0669
 kinetic energy error for atom=    0.0151 (will be added to EATOM!!)
 
 
 POSCAR: Real silicon structure                  
  positions in direct lattice
  No initial velocities read in
 exchange correlation table for  LEXCH =        8
   RHO(1)=    0.500       N(1)  =     2000
   RHO(2)=  100.500       N(2)  =     4000
 


--------------------------------------------------------------------------------------------------------


 ion  position               nearest neighbor table
   1  0.875  0.875  0.875-   2 2.51   2 2.51   2 2.51   2 2.51
   2  0.125  0.125  0.125-   1 2.51   1 2.51   1 2.51   1 2.51
 
  LATTYP: Found a face centered cubic cell.
 ALAT       =     5.8000000000
  
  Lattice vectors:
  
 A1 = (   0.0000000000,   2.9000000000,   2.9000000000)
 A2 = (   2.9000000000,   0.0000000000,   2.9000000000)
 A3 = (   2.9000000000,   2.9000000000,   0.0000000000)


Analysis of symmetry for initial positions (statically):
=====================================================================
 Subroutine PRICEL returns:
 Original cell was already a primitive cell.
 

 Routine SETGRP: Setting up the symmetry group for a 
 face centered cubic supercell.


 Subroutine GETGRP returns: Found 48 space group operations
 (whereof 12 operations were pure point group operations)
 out of a pool of 48 trial point group operations.


The static configuration has the point symmetry D_3d.
 The point group associated with its full space group is O_h .


Analysis of symmetry for dynamics (positions and initial velocities):
=====================================================================
 Subroutine PRICEL returns:
 Original cell was already a primitive cell.
 

 Routine SETGRP: Setting up the symmetry group for a 
 face centered cubic supercell.


 Subroutine GETGRP returns: Found 48 space group operations
 (whereof 12 operations were pure point group operations)
 out of a pool of 48 trial point group operations.


The dynamic configuration has the point symmetry D_3d.
 The point group associated with its full space group is O_h .
 
 
 KPOINTS: k-points                                

Automatic generation of k-mesh.
Space group operators:
 irot       det(A)        alpha          n_x          n_y          n_z        tau_x        tau_y        tau_z
    1     1.000000     0.000000     1.000000     0.000000     0.000000     0.000000     0.000000     0.000000
    2    -1.000000     0.000000     1.000000     0.000000     0.000000     0.000000     0.000000     0.000000
    3     1.000000   120.000000    -0.577350    -0.577350    -0.577350     0.000000     0.000000     0.000000
    4    -1.000000   120.000000    -0.577350    -0.577350    -0.577350     0.000000     0.000000     0.000000
    5     1.000000   120.000000     0.577350     0.577350     0.577350     0.000000     0.000000     0.000000
    6    -1.000000   120.000000     0.577350     0.577350     0.577350     0.000000     0.000000     0.000000
    7     1.000000   180.000000     0.000000    -0.707107     0.707107     0.000000     0.000000     0.000000
    8    -1.000000   180.000000     0.000000    -0.707107     0.707107     0.000000     0.000000     0.000000
    9     1.000000   180.000000     0.707107    -0.707107     0.000000     0.000000     0.000000     0.000000
   10    -1.000000   180.000000     0.707107    -0.707107     0.000000     0.000000     0.000000     0.000000
   11     1.000000   180.000000     0.707107     0.000000    -0.707107     0.000000     0.000000     0.000000
   12    -1.000000   180.000000     0.707107     0.000000    -0.707107     0.000000     0.000000     0.000000
   13     1.000000    90.000000     0.000000     0.000000    -1.000000     0.500000     0.000000     0.000000
   14    -1.000000    90.000000     0.000000     0.000000    -1.000000     0.500000     0.000000     0.000000
   15     1.000000   180.000000     0.000000     0.707107     0.707107     0.500000     0.000000     0.000000
   16    -1.000000   180.000000     0.000000     0.707107     0.707107     0.500000     0.000000     0.000000
   17     1.000000    90.000000     0.000000     1.000000     0.000000     0.500000     0.000000     0.000000
   18    -1.000000    90.000000     0.000000     1.000000     0.000000     0.500000     0.000000     0.000000
   19     1.000000   180.000000     0.000000     0.000000     1.000000     0.000000     0.000000     0.500000
   20    -1.000000   180.000000     0.000000     0.000000     1.000000     0.000000     0.000000     0.500000
   21     1.000000   120.000000    -0.577350     0.577350     0.577350     0.000000     0.000000     0.500000
   22    -1.000000   120.000000    -0.577350     0.577350     0.577350     0.000000     0.000000     0.500000
   23     1.000000   120.000000    -0.577350     0.577350    -0.577350     0.000000     0.000000     0.500000
   24    -1.000000   120.000000    -0.577350     0.577350    -0.577350     0.000000     0.000000     0.500000
   25     1.000000    90.000000     0.000000     0.000000     1.000000     0.000000     0.500000     0.000000
   26    -1.000000    90.000000     0.000000     0.000000     1.000000     0.000000     0.500000     0.000000
   27     1.000000    90.000000    -1.000000     0.000000     0.000000     0.000000     0.500000     0.000000
   28    -1.000000    90.000000    -1.000000     0.000000     0.000000     0.000000     0.500000     0.000000
   29     1.000000   180.000000     0.707107     0.000000     0.707107     0.000000     0.500000     0.000000
   30    -1.000000   180.000000     0.707107     0.000000     0.707107     0.000000     0.500000     0.000000
   31     1.000000   120.000000     0.577350    -0.577350     0.577350     0.500000     0.000000     0.000000
   32    -1.000000   120.000000     0.577350    -0.577350     0.577350     0.500000     0.000000     0.000000
   33     1.000000   120.000000    -0.577350    -0.577350     0.577350     0.500000     0.000000     0.000000
   34    -1.000000   120.000000    -0.577350    -0.577350     0.577350     0.500000     0.000000     0.000000
   35     1.000000   180.000000     1.000000     0.000000     0.000000     0.500000     0.000000     0.000000
   36    -1.000000   180.000000     1.000000     0.000000     0.000000     0.500000     0.000000     0.000000
   37     1.000000    90.000000     0.000000    -1.000000     0.000000     0.000000     0.000000     0.500000
   38    -1.000000    90.000000     0.000000    -1.000000     0.000000     0.000000     0.000000     0.500000
   39     1.000000   180.000000     0.707107     0.707107     0.000000     0.000000     0.000000     0.500000
   40    -1.000000   180.000000     0.707107     0.707107     0.000000     0.000000     0.000000     0.500000
   41     1.000000    90.000000     1.000000     0.000000     0.000000     0.000000     0.000000     0.500000
   42    -1.000000    90.000000     1.000000     0.000000     0.000000     0.000000     0.000000     0.500000
   43     1.000000   120.000000     0.577350    -0.577350    -0.577350     0.000000     0.500000     0.000000
   44    -1.000000   120.000000     0.577350    -0.577350    -0.577350     0.000000     0.500000     0.000000
   45     1.000000   180.000000     0.000000     1.000000     0.000000     0.000000     0.500000     0.000000
   46    -1.000000   180.000000     0.000000     1.000000     0.000000     0.000000     0.500000     0.000000
   47     1.000000   120.000000     0.577350     0.577350    -0.577350     0.000000     0.500000     0.000000
   48    -1.000000   120.000000     0.577350     0.577350    -0.577350     0.000000     0.500000     0.000000
 
 Subroutine IBZKPT returns following result:
 ===========================================
 
 Found    120 irreducible k-points:
 
 Following reciprocal coordinates:
            Coordinates               Weight
  0.000000  0.000000  0.000000      1.000000
  0.066667  0.000000  0.000000      8.000000
  0.133333  0.000000  0.000000      8.000000
  0.200000  0.000000  0.000000      8.000000
  0.266667  0.000000  0.000000      8.000000
  0.333333  0.000000  0.000000      8.000000
  0.400000  0.000000  0.000000      8.000000
  0.466667  0.000000  0.000000      8.000000
  0.066667  0.066667  0.000000      6.000000
  0.133333  0.066667  0.000000     24.000000
  0.200000  0.066667  0.000000     24.000000
  0.266667  0.066667  0.000000     24.000000
  0.333333  0.066667  0.000000     24.000000
  0.400000  0.066667  0.000000     24.000000
  0.466667  0.066667  0.000000     24.000000
 -0.466667  0.066667  0.000000     24.000000
 -0.400000  0.066667  0.000000     24.000000
 -0.333333  0.066667  0.000000     24.000000
 -0.266667  0.066667  0.000000     24.000000
 -0.200000  0.066667  0.000000     24.000000
 -0.133333  0.066667  0.000000     24.000000
 -0.066667  0.066667  0.000000     12.000000
  0.133333  0.133333  0.000000      6.000000
  0.200000  0.133333  0.000000     24.000000
  0.266667  0.133333  0.000000     24.000000
  0.333333  0.133333  0.000000     24.000000
  0.400000  0.133333  0.000000     24.000000
  0.466667  0.133333  0.000000     24.000000
 -0.466667  0.133333  0.000000     24.000000
 -0.400000  0.133333  0.000000     24.000000
 -0.333333  0.133333  0.000000     24.000000
 -0.266667  0.133333  0.000000     24.000000
 -0.200000  0.133333  0.000000     24.000000
 -0.133333  0.133333  0.000000     12.000000
  0.200000  0.200000  0.000000      6.000000
  0.266667  0.200000  0.000000     24.000000
  0.333333  0.200000  0.000000     24.000000
  0.400000  0.200000  0.000000     24.000000
  0.466667  0.200000  0.000000     24.000000
 -0.466667  0.200000  0.000000     24.000000
 -0.400000  0.200000  0.000000     24.000000
 -0.333333  0.200000  0.000000     24.000000
 -0.266667  0.200000  0.000000     24.000000
 -0.200000  0.200000  0.000000     12.000000
  0.266667  0.266667  0.000000      6.000000
  0.333333  0.266667  0.000000     24.000000
  0.400000  0.266667  0.000000     24.000000
  0.466667  0.266667  0.000000     24.000000
 -0.466667  0.266667  0.000000     24.000000
 -0.400000  0.266667  0.000000     24.000000
 -0.333333  0.266667  0.000000     24.000000
 -0.266667  0.266667  0.000000     12.000000
  0.333333  0.333333  0.000000      6.000000
  0.400000  0.333333  0.000000     24.000000
  0.466667  0.333333  0.000000     24.000000
 -0.466667  0.333333  0.000000     24.000000
 -0.400000  0.333333  0.000000     24.000000
 -0.333333  0.333333  0.000000     12.000000
  0.400000  0.400000  0.000000      6.000000
  0.466667  0.400000  0.000000     24.000000
 -0.466667  0.400000  0.000000     24.000000
 -0.400000  0.400000  0.000000     12.000000
  0.466667  0.466667  0.000000      6.000000
 -0.466667  0.466667  0.000000     12.000000
  0.200000  0.133333  0.066667     24.000000
  0.266667  0.133333  0.066667     48.000000
  0.333333  0.133333  0.066667     48.000000
  0.400000  0.133333  0.066667     48.000000
  0.466667  0.133333  0.066667     48.000000
 -0.466667  0.133333  0.066667     48.000000
  0.266667  0.200000  0.066667     24.000000
  0.333333  0.200000  0.066667     48.000000
  0.400000  0.200000  0.066667     48.000000
  0.466667  0.200000  0.066667     48.000000
 -0.466667  0.200000  0.066667     48.000000
 -0.400000  0.200000  0.066667     48.000000
 -0.333333  0.200000  0.066667     48.000000
 -0.266667  0.200000  0.066667     48.000000
 -0.200000  0.200000  0.066667     48.000000
 -0.133333  0.200000  0.066667     24.000000
  0.333333  0.266667  0.066667     24.000000
  0.400000  0.266667  0.066667     48.000000
  0.466667  0.266667  0.066667     48.000000
 -0.466667  0.266667  0.066667     48.000000
 -0.400000  0.266667  0.066667     48.000000
 -0.333333  0.266667  0.066667     48.000000
 -0.266667  0.266667  0.066667     48.000000
 -0.200000  0.266667  0.066667     24.000000
  0.400000  0.333333  0.066667     24.000000
  0.466667  0.333333  0.066667     48.000000
 -0.466667  0.333333  0.066667     48.000000
 -0.400000  0.333333  0.066667     48.000000
 -0.333333  0.333333  0.066667     48.000000
 -0.266667  0.333333  0.066667     24.000000
  0.466667  0.400000  0.066667     24.000000
 -0.466667  0.400000  0.066667     48.000000
 -0.400000  0.400000  0.066667     48.000000
 -0.333333  0.400000  0.066667     24.000000
 -0.466667  0.466667  0.066667     24.000000
 -0.400000  0.466667  0.066667     24.000000
  0.400000  0.266667  0.133333     24.000000
  0.466667  0.266667  0.133333     48.000000
 -0.466667  0.266667  0.133333     48.000000
 -0.400000  0.266667  0.133333     48.000000
  0.466667  0.333333  0.133333     24.000000
 -0.466667  0.333333  0.133333     48.000000
 -0.400000  0.333333  0.133333     48.000000
 -0.333333  0.333333  0.133333     48.000000
 -0.266667  0.333333  0.133333     48.000000
 -0.200000  0.333333  0.133333     24.000000
 -0.466667  0.400000  0.133333     24.000000
 -0.400000  0.400000  0.133333     48.000000
 -0.333333  0.400000  0.133333     48.000000
 -0.266667  0.400000  0.133333     24.000000
 -0.400000  0.466667  0.133333     24.000000
 -0.333333  0.466667  0.133333     24.000000
 -0.400000  0.400000  0.200000     24.000000
 -0.333333  0.400000  0.200000     48.000000
 -0.333333  0.466667  0.200000     24.000000
 -0.266667  0.466667  0.200000     24.000000
 
 Following cartesian coordinates:
            Coordinates               Weight
  0.000000  0.000000  0.000000      1.000000
 -0.066667  0.066667  0.066667      8.000000
 -0.133333  0.133333  0.133333      8.000000
 -0.200000  0.200000  0.200000      8.000000
 -0.266667  0.266667  0.266667      8.000000
 -0.333333  0.333333  0.333333      8.000000
 -0.400000  0.400000  0.400000      8.000000
 -0.466667  0.466667  0.466667      8.000000
  0.000000  0.000000  0.133333      6.000000
 -0.066667  0.066667  0.200000     24.000000
 -0.133333  0.133333  0.266667     24.000000
 -0.200000  0.200000  0.333333     24.000000
 -0.266667  0.266667  0.400000     24.000000
 -0.333333  0.333333  0.466667     24.000000
 -0.400000  0.400000  0.533333     24.000000
  0.533333 -0.533333 -0.400000     24.000000
  0.466667 -0.466667 -0.333333     24.000000
  0.400000 -0.400000 -0.266667     24.000000
  0.333333 -0.333333 -0.200000     24.000000
  0.266667 -0.266667 -0.133333     24.000000
  0.200000 -0.200000 -0.066667     24.000000
  0.133333 -0.133333  0.000000     12.000000
  0.000000  0.000000  0.266667      6.000000
 -0.066667  0.066667  0.333333     24.000000
 -0.133333  0.133333  0.400000     24.000000
 -0.200000  0.200000  0.466667     24.000000
 -0.266667  0.266667  0.533333     24.000000
 -0.333333  0.333333  0.600000     24.000000
  0.600000 -0.600000 -0.333333     24.000000
  0.533333 -0.533333 -0.266667     24.000000
  0.466667 -0.466667 -0.200000     24.000000
  0.400000 -0.400000 -0.133333     24.000000
  0.333333 -0.333333 -0.066667     24.000000
  0.266667 -0.266667  0.000000     12.000000
  0.000000  0.000000  0.400000      6.000000
 -0.066667  0.066667  0.466667     24.000000
 -0.133333  0.133333  0.533333     24.000000
 -0.200000  0.200000  0.600000     24.000000
 -0.266667  0.266667  0.666667     24.000000
  0.666667 -0.666667 -0.266667     24.000000
  0.600000 -0.600000 -0.200000     24.000000
  0.533333 -0.533333 -0.133333     24.000000
  0.466667 -0.466667 -0.066667     24.000000
  0.400000 -0.400000  0.000000     12.000000
  0.000000  0.000000  0.533333      6.000000
 -0.066667  0.066667  0.600000     24.000000
 -0.133333  0.133333  0.666667     24.000000
 -0.200000  0.200000  0.733333     24.000000
  0.733333 -0.733333 -0.200000     24.000000
  0.666667 -0.666667 -0.133333     24.000000
  0.600000 -0.600000 -0.066667     24.000000
  0.533333 -0.533333  0.000000     12.000000
  0.000000  0.000000  0.666667      6.000000
 -0.066667  0.066667  0.733333     24.000000
 -0.133333  0.133333  0.800000     24.000000
  0.800000 -0.800000 -0.133333     24.000000
  0.733333 -0.733333 -0.066667     24.000000
  0.666667 -0.666667  0.000000     12.000000
  0.000000  0.000000  0.800000      6.000000
 -0.066667  0.066667  0.866667     24.000000
  0.866667 -0.866667 -0.066667     24.000000
  0.800000 -0.800000  0.000000     12.000000
  0.000000  0.000000  0.933333      6.000000
  0.933333 -0.933333  0.000000     12.000000
  0.000000  0.133333  0.266667     24.000000
 -0.066667  0.200000  0.333333     48.000000
 -0.133333  0.266667  0.400000     48.000000
 -0.200000  0.333333  0.466667     48.000000
 -0.266667  0.400000  0.533333     48.000000
  0.666667 -0.533333 -0.400000     48.000000
  0.000000  0.133333  0.400000     24.000000
 -0.066667  0.200000  0.466667     48.000000
 -0.133333  0.266667  0.533333     48.000000
 -0.200000  0.333333  0.600000     48.000000
  0.733333 -0.600000 -0.333333     48.000000
  0.666667 -0.533333 -0.266667     48.000000
  0.600000 -0.466667 -0.200000     48.000000
  0.533333 -0.400000 -0.133333     48.000000
  0.466667 -0.333333 -0.066667     48.000000
  0.400000 -0.266667  0.000000     24.000000
  0.000000  0.133333  0.533333     24.000000
 -0.066667  0.200000  0.600000     48.000000
 -0.133333  0.266667  0.666667     48.000000
  0.800000 -0.666667 -0.266667     48.000000
  0.733333 -0.600000 -0.200000     48.000000
  0.666667 -0.533333 -0.133333     48.000000
  0.600000 -0.466667 -0.066667     48.000000
  0.533333 -0.400000 -0.000000     24.000000
 -0.000000  0.133333  0.666667     24.000000
 -0.066667  0.200000  0.733333     48.000000
  0.866667 -0.733333 -0.200000     48.000000
  0.800000 -0.666667 -0.133333     48.000000
  0.733333 -0.600000 -0.066667     48.000000
  0.666667 -0.533333 -0.000000     24.000000
  0.000000  0.133333  0.800000     24.000000
  0.933333 -0.800000 -0.133333     48.000000
  0.866667 -0.733333 -0.066667     48.000000
  0.800000 -0.666667  0.000000     24.000000
  1.000000 -0.866667 -0.066667     24.000000
  0.933333 -0.800000 -0.000000     24.000000
 -0.000000  0.266667  0.533333     24.000000
 -0.066667  0.333333  0.600000     48.000000
  0.866667 -0.600000 -0.333333     48.000000
  0.800000 -0.533333 -0.266667     48.000000
 -0.000000  0.266667  0.666667     24.000000
  0.933333 -0.666667 -0.266667     48.000000
  0.866667 -0.600000 -0.200000     48.000000
  0.800000 -0.533333 -0.133333     48.000000
  0.733333 -0.466667 -0.066667     48.000000
  0.666667 -0.400000 -0.000000     24.000000
  1.000000 -0.733333 -0.200000     24.000000
  0.933333 -0.666667 -0.133333     48.000000
  0.866667 -0.600000 -0.066667     48.000000
  0.800000 -0.533333  0.000000     24.000000
  1.000000 -0.733333 -0.066667     24.000000
  0.933333 -0.666667  0.000000     24.000000
  1.000000 -0.600000 -0.200000     24.000000
  0.933333 -0.533333 -0.133333     48.000000
  1.000000 -0.600000 -0.066667     24.000000
  0.933333 -0.533333  0.000000     24.000000
 


--------------------------------------------------------------------------------------------------------




 Dimension of arrays:
   k-points           NKPTS =    120   k-points in BZ     NKDIM =    120   number of bands    NBANDS=     16
   number of dos      NEDOS =    301   number of ions     NIONS =      2
   non local maximal  LDIM  =      4   non local SUM 2l+1 LMDIM =      8
   total plane-waves  NPLWV =   2744
   max r-space proj   IRMAX =      1   max aug-charges    IRDMAX=   2080
   dimension x,y,z NGX =    14 NGY =   14 NGZ =   14
   dimension x,y,z NGXF=    28 NGYF=   28 NGZF=   28
   support grid    NGXF=    28 NGYF=   28 NGZF=   28
   ions per type =               2
 NGX,Y,Z   is equivalent  to a cutoff of   5.68,  5.68,  5.68 a.u.
 NGXF,Y,Z  is equivalent  to a cutoff of  11.35, 11.35, 11.35 a.u.


 I would recommend the setting:
   dimension x,y,z NGX =    13 NGY =   13 NGZ =   13
 SYSTEM =  Silicon                                 
 POSCAR =  Real silicon structure                  

 Startparameter for this run:
   NWRITE =      2    write-flag & timer
   PREC   = normal    normal or accurate (medium, high low for compatibility)
   ISTART =      0    job   : 0-new  1-cont  2-samecut
   ICHARG =      2    charge: 1-file 2-atom 10-const
   ISPIN  =      1    spin polarized calculation?
   LNONCOLLINEAR =      F non collinear calculations
   LSORBIT =      F    spin-orbit coupling
   INIWAV =      1    electr: 0-lowe 1-rand  2-diag
   LASPH  =      F    aspherical Exc in radial PAW
   METAGGA=      F    non-selfconsistent MetaGGA calc.

 Electronic Relaxation 1
   ENCUT  =  170.0 eV  12.49 Ry    3.53 a.u.   4.36  4.36  4.36*2*pi/ulx,y,z
   ENINI  =  170.0     initial cutoff
   ENAUG  =  322.1 eV  augmentation charge cutoff
   NELM   =    100;   NELMIN=  4; NELMDL= -5     # of ELM steps 
   EDIFF  = 0.1E-05   stopping-criterion for ELM
   LREAL  =      F    real-space projection
   NLSPLINE    = F    spline interpolate recip. space projectors
   LCOMPAT=      F    compatible to vasp.4.4
   GGA_COMPAT  = T    GGA compatible to vasp.4.4-vasp.4.6
   LMAXPAW     = -100 max onsite density
   LMAXMIX     =    2 max onsite mixed and CHGCAR
   VOSKOWN=      0    Vosko Wilk Nusair interpolation
   ROPT   =    0.00000
 Ionic relaxation
   EDIFFG = 0.1E-04   stopping-criterion for IOM
   NSW    =      0    number of steps for IOM
   NBLOCK =      1;   KBLOCK =      1    inner block; outer block 
   IBRION =     -1    ionic relax: 0-MD 1-quasi-New 2-CG
   NFREE  =      0    steps in history (QN), initial steepest desc. (CG)
   ISIF   =      2    stress and relaxation
   IWAVPR =     10    prediction:  0-non 1-charg 2-wave 3-comb
   ISYM   =      2    0-nonsym 1-usesym 2-fastsym
   LCORR  =      T    Harris-Foulkes like correction to forces

   POTIM  = 0.5000    time-step for ionic-motion
   TEIN   =    0.0    initial temperature
   TEBEG  =    0.0;   TEEND  =   0.0 temperature during run
   SMASS  =  -3.00    Nose mass-parameter (am)
   estimated Nose-frequenzy (Omega)   =  0.10E-29 period in steps =****** mass=  -0.384E-27a.u.
   SCALEE = 1.0000    scale energy and forces
   NPACO  =    256;   APACO  = 16.0  distance and # of slots for P.C.
   PSTRESS=    0.0 pullay stress

  Mass of Ions in am
   POMASS =  28.09
  Ionic Valenz
   ZVAL   =   4.00
  Atomic Wigner-Seitz radii
   RWIGS  =  -1.00
  virtual crystal weights 
   VCA    =   1.00
   NELECT =       8.0000    total number of electrons
   NUPDOWN=      -1.0000    fix difference up-down

 DOS related values:
   EMIN   =  10.00;   EMAX   =-10.00  energy-range for DOS
   EFERMI =   0.00
   ISMEAR =     0;   SIGMA  =   0.10  broadening in eV -4-tet -1-fermi 0-gaus

 Electronic relaxation 2 (details)
   IALGO  =     38    algorithm
   LDIAG  =      T    sub-space diagonalisation (order eigenvalues)
   LSUBROT=      F    optimize rotation matrix (better conditioning)
   TURBO    =      0    0=normal 1=particle mesh
   IRESTART =      0    0=no restart 2=restart with 2 vectors
   NREBOOT  =      0    no. of reboots
   NMIN     =      0    reboot dimension
   EREF     =   0.00    reference energy to select bands
   IMIX   =      4    mixing-type and parameters
     AMIX     =   0.40;   BMIX     =  1.00
     AMIX_MAG =   1.60;   BMIX_MAG =  1.00
     AMIN     =   0.10
     WC   =   100.;   INIMIX=   1;  MIXPRE=   1;  MAXMIX= -45

 Intra band minimization:
   WEIMIN = 0.0000     energy-eigenvalue tresh-hold
   EBREAK =  0.16E-07  absolut break condition
   DEPER  =   0.30     relativ break condition  

   TIME   =   0.40     timestep for ELM

  volume/ion in A,a.u.               =      24.39       164.59
  Fermi-wavevector in a.u.,A,eV,Ry     =   0.896114  1.693411 10.925766  0.803021
  Thomas-Fermi vector in A             =   2.018532
 
 Write flags
   LWAVE  =      T    write WAVECAR
   LCHARG =      T    write CHGCAR
   LVTOT  =      F    write LOCPOT, total local potential
   LVHAR  =      F    write LOCPOT, Hartree potential only
   LELF   =      F    write electronic localiz. function (ELF)
   LORBIT =      0    0 simple, 1 ext, 2 COOP (PROOUT)


 Dipole corrections
   LMONO  =      F    monopole corrections only (constant potential shift)
   LDIPOL =      F    correct potential (dipole corrections)
   IDIPOL =      0    1-x, 2-y, 3-z, 4-all directions 
   EPSILON=  1.0000000 bulk dielectric constant

 Exchange correlation treatment:
   GGA     =    --    GGA type
   LEXCH   =     8    internal setting for exchange type
   VOSKOWN=      0    Vosko Wilk Nusair interpolation
   LHFCALC =     F    Hartree Fock is set to
   LHFONE  =     F    Hartree Fock one center treatment
   AEXX    =    0.0000 exact exchange contribution

 Linear response parameters
   LEPSILON=     F    determine dielectric tensor
   LRPA    =     F    only Hartree local field effects (RPA)
   LNABLA  =     F    use nabla operator in PAW spheres
   LVEL    =     F    velocity operator in full k-point grid
   LINTERFAST=   F  fast interpolation
   KINTER  =     0    interpolate to denser k-point grid
   CSHIFT  =0.1000    complex shift for real part using Kramers Kronig
   OMEGAMAX=  -1.0    maximum frequency
   DEG_THRESHOLD= 0.2000000E-02 threshold for treating states as degnerate
   RTIME   =    0.100 relaxation time in fs

 Orbital magnetization related:
   ORBITALMAG=     F  switch on orbital magnetization
   LCHIMAG   =     F  perturbation theory with respect to B field
   DQ        =  0.001000  dq finite difference perturbation B field



--------------------------------------------------------------------------------------------------------


 Static calculation
 charge density and potential will be updated during run
 non-spin polarized calculation
 Variant of blocked Davidson
 Davidson routine will perform the subspace rotation
 perform sub-space diagonalisation
    after iterative eigenvector-optimisation
 modified Broyden-mixing scheme, WC =      100.0
 initial mixing is a Kerker type mixing with AMIX =  0.4000 and BMIX =      1.0000
 Hartree-type preconditioning will be used
 using additional bands           12
 reciprocal scheme for non local part
 use partial core corrections
 calculate Harris-corrections to forces 
   (improved forces if not selfconsistent)
 use gradient corrections 
 use of overlap-Matrix (Vanderbilt PP)
 Gauss-broadening in eV      SIGMA  =   0.10


--------------------------------------------------------------------------------------------------------


  energy-cutoff  :      170.00
  volume of cell :       48.78
      direct lattice vectors                 reciprocal lattice vectors
     0.000000000  2.900000000  2.900000000    -0.172413793  0.172413793  0.172413793
     2.900000000  0.000000000  2.900000000     0.172413793 -0.172413793  0.172413793
     2.900000000  2.900000000  0.000000000     0.172413793  0.172413793 -0.172413793

  length of vectors
     4.101219331  4.101219331  4.101219331     0.298629450  0.298629450  0.298629450


 
 k-points in units of 2pi/SCALE and weight: k-points                                
   0.00000000  0.00000000  0.00000000       0.000
  -0.06666667  0.06666667  0.06666667       0.002
  -0.13333333  0.13333333  0.13333333       0.002
  -0.20000000  0.20000000  0.20000000       0.002
  -0.26666667  0.26666667  0.26666667       0.002
  -0.33333333  0.33333333  0.33333333       0.002
  -0.40000000  0.40000000  0.40000000       0.002
  -0.46666667  0.46666667  0.46666667       0.002
   0.00000000  0.00000000  0.13333333       0.002
  -0.06666667  0.06666667  0.20000000       0.007
  -0.13333333  0.13333333  0.26666667       0.007
  -0.20000000  0.20000000  0.33333333       0.007
  -0.26666667  0.26666667  0.40000000       0.007
  -0.33333333  0.33333333  0.46666667       0.007
  -0.40000000  0.40000000  0.53333333       0.007
   0.53333333 -0.53333333 -0.40000000       0.007
   0.46666667 -0.46666667 -0.33333333       0.007
   0.40000000 -0.40000000 -0.26666667       0.007
   0.33333333 -0.33333333 -0.20000000       0.007
   0.26666667 -0.26666667 -0.13333333       0.007
   0.20000000 -0.20000000 -0.06666667       0.007
   0.13333333 -0.13333333  0.00000000       0.004
   0.00000000  0.00000000  0.26666667       0.002
  -0.06666667  0.06666667  0.33333333       0.007
  -0.13333333  0.13333333  0.40000000       0.007
  -0.20000000  0.20000000  0.46666667       0.007
  -0.26666667  0.26666667  0.53333333       0.007
  -0.33333333  0.33333333  0.60000000       0.007
   0.60000000 -0.60000000 -0.33333333       0.007
   0.53333333 -0.53333333 -0.26666667       0.007
   0.46666667 -0.46666667 -0.20000000       0.007
   0.40000000 -0.40000000 -0.13333333       0.007
   0.33333333 -0.33333333 -0.06666667       0.007
   0.26666667 -0.26666667  0.00000000       0.004
   0.00000000  0.00000000  0.40000000       0.002
  -0.06666667  0.06666667  0.46666667       0.007
  -0.13333333  0.13333333  0.53333333       0.007
  -0.20000000  0.20000000  0.60000000       0.007
  -0.26666667  0.26666667  0.66666667       0.007
   0.66666667 -0.66666667 -0.26666667       0.007
   0.60000000 -0.60000000 -0.20000000       0.007
   0.53333333 -0.53333333 -0.13333333       0.007
   0.46666667 -0.46666667 -0.06666667       0.007
   0.40000000 -0.40000000  0.00000000       0.004
   0.00000000  0.00000000  0.53333333       0.002
  -0.06666667  0.06666667  0.60000000       0.007
  -0.13333333  0.13333333  0.66666667       0.007
  -0.20000000  0.20000000  0.73333333       0.007
   0.73333333 -0.73333333 -0.20000000       0.007
   0.66666667 -0.66666667 -0.13333333       0.007
   0.60000000 -0.60000000 -0.06666667       0.007
   0.53333333 -0.53333333  0.00000000       0.004
   0.00000000  0.00000000  0.66666667       0.002
  -0.06666667  0.06666667  0.73333333       0.007
  -0.13333333  0.13333333  0.80000000       0.007
   0.80000000 -0.80000000 -0.13333333       0.007
   0.73333333 -0.73333333 -0.06666667       0.007
   0.66666667 -0.66666667  0.00000000       0.004
   0.00000000  0.00000000  0.80000000       0.002
  -0.06666667  0.06666667  0.86666667       0.007
   0.86666667 -0.86666667 -0.06666667       0.007
   0.80000000 -0.80000000  0.00000000       0.004
   0.00000000  0.00000000  0.93333333       0.002
   0.93333333 -0.93333333  0.00000000       0.004
   0.00000000  0.13333333  0.26666667       0.007
  -0.06666667  0.20000000  0.33333333       0.014
  -0.13333333  0.26666667  0.40000000       0.014
  -0.20000000  0.33333333  0.46666667       0.014
  -0.26666667  0.40000000  0.53333333       0.014
   0.66666667 -0.53333333 -0.40000000       0.014
   0.00000000  0.13333333  0.40000000       0.007
  -0.06666667  0.20000000  0.46666667       0.014
  -0.13333333  0.26666667  0.53333333       0.014
  -0.20000000  0.33333333  0.60000000       0.014
   0.73333333 -0.60000000 -0.33333333       0.014
   0.66666667 -0.53333333 -0.26666667       0.014
   0.60000000 -0.46666667 -0.20000000       0.014
   0.53333333 -0.40000000 -0.13333333       0.014
   0.46666667 -0.33333333 -0.06666667       0.014
   0.40000000 -0.26666667  0.00000000       0.007
   0.00000000  0.13333333  0.53333333       0.007
  -0.06666667  0.20000000  0.60000000       0.014
  -0.13333333  0.26666667  0.66666667       0.014
   0.80000000 -0.66666667 -0.26666667       0.014
   0.73333333 -0.60000000 -0.20000000       0.014
   0.66666667 -0.53333333 -0.13333333       0.014
   0.60000000 -0.46666667 -0.06666667       0.014
   0.53333333 -0.40000000 -0.00000000       0.007
  -0.00000000  0.13333333  0.66666667       0.007
  -0.06666667  0.20000000  0.73333333       0.014
   0.86666667 -0.73333333 -0.20000000       0.014
   0.80000000 -0.66666667 -0.13333333       0.014
   0.73333333 -0.60000000 -0.06666667       0.014
   0.66666667 -0.53333333 -0.00000000       0.007
   0.00000000  0.13333333  0.80000000       0.007
   0.93333333 -0.80000000 -0.13333333       0.014
   0.86666667 -0.73333333 -0.06666667       0.014
   0.80000000 -0.66666667  0.00000000       0.007
   1.00000000 -0.86666667 -0.06666667       0.007
   0.93333333 -0.80000000 -0.00000000       0.007
  -0.00000000  0.26666667  0.53333333       0.007
  -0.06666667  0.33333333  0.60000000       0.014
   0.86666667 -0.60000000 -0.33333333       0.014
   0.80000000 -0.53333333 -0.26666667       0.014
  -0.00000000  0.26666667  0.66666667       0.007
   0.93333333 -0.66666667 -0.26666667       0.014
   0.86666667 -0.60000000 -0.20000000       0.014
   0.80000000 -0.53333333 -0.13333333       0.014
   0.73333333 -0.46666667 -0.06666667       0.014
   0.66666667 -0.40000000 -0.00000000       0.007
   1.00000000 -0.73333333 -0.20000000       0.007
   0.93333333 -0.66666667 -0.13333333       0.014
   0.86666667 -0.60000000 -0.06666667       0.014
   0.80000000 -0.53333333  0.00000000       0.007
   1.00000000 -0.73333333 -0.06666667       0.007
   0.93333333 -0.66666667  0.00000000       0.007
   1.00000000 -0.60000000 -0.20000000       0.007
   0.93333333 -0.53333333 -0.13333333       0.014
   1.00000000 -0.60000000 -0.06666667       0.007
   0.93333333 -0.53333333  0.00000000       0.007
 
 k-points in reciprocal lattice and weights: k-points                                
   0.00000000  0.00000000  0.00000000       0.000
   0.06666667  0.00000000  0.00000000       0.002
   0.13333333  0.00000000  0.00000000       0.002
   0.20000000  0.00000000  0.00000000       0.002
   0.26666667  0.00000000  0.00000000       0.002
   0.33333333  0.00000000  0.00000000       0.002
   0.40000000  0.00000000  0.00000000       0.002
   0.46666667  0.00000000  0.00000000       0.002
   0.06666667  0.06666667  0.00000000       0.002
   0.13333333  0.06666667  0.00000000       0.007
   0.20000000  0.06666667  0.00000000       0.007
   0.26666667  0.06666667  0.00000000       0.007
   0.33333333  0.06666667  0.00000000       0.007
   0.40000000  0.06666667  0.00000000       0.007
   0.46666667  0.06666667  0.00000000       0.007
  -0.46666667  0.06666667  0.00000000       0.007
  -0.40000000  0.06666667  0.00000000       0.007
  -0.33333333  0.06666667  0.00000000       0.007
  -0.26666667  0.06666667  0.00000000       0.007
  -0.20000000  0.06666667  0.00000000       0.007
  -0.13333333  0.06666667  0.00000000       0.007
  -0.06666667  0.06666667  0.00000000       0.004
   0.13333333  0.13333333  0.00000000       0.002
   0.20000000  0.13333333  0.00000000       0.007
   0.26666667  0.13333333  0.00000000       0.007
   0.33333333  0.13333333  0.00000000       0.007
   0.40000000  0.13333333  0.00000000       0.007
   0.46666667  0.13333333  0.00000000       0.007
  -0.46666667  0.13333333  0.00000000       0.007
  -0.40000000  0.13333333  0.00000000       0.007
  -0.33333333  0.13333333  0.00000000       0.007
  -0.26666667  0.13333333  0.00000000       0.007
  -0.20000000  0.13333333  0.00000000       0.007
  -0.13333333  0.13333333  0.00000000       0.004
   0.20000000  0.20000000  0.00000000       0.002
   0.26666667  0.20000000  0.00000000       0.007
   0.33333333  0.20000000  0.00000000       0.007
   0.40000000  0.20000000  0.00000000       0.007
   0.46666667  0.20000000  0.00000000       0.007
  -0.46666667  0.20000000  0.00000000       0.007
  -0.40000000  0.20000000  0.00000000       0.007
  -0.33333333  0.20000000  0.00000000       0.007
  -0.26666667  0.20000000  0.00000000       0.007
  -0.20000000  0.20000000  0.00000000       0.004
   0.26666667  0.26666667  0.00000000       0.002
   0.33333333  0.26666667  0.00000000       0.007
   0.40000000  0.26666667  0.00000000       0.007
   0.46666667  0.26666667  0.00000000       0.007
  -0.46666667  0.26666667  0.00000000       0.007
  -0.40000000  0.26666667  0.00000000       0.007
  -0.33333333  0.26666667  0.00000000       0.007
  -0.26666667  0.26666667  0.00000000       0.004
   0.33333333  0.33333333  0.00000000       0.002
   0.40000000  0.33333333  0.00000000       0.007
   0.46666667  0.33333333  0.00000000       0.007
  -0.46666667  0.33333333  0.00000000       0.007
  -0.40000000  0.33333333  0.00000000       0.007
  -0.33333333  0.33333333  0.00000000       0.004
   0.40000000  0.40000000  0.00000000       0.002
   0.46666667  0.40000000  0.00000000       0.007
  -0.46666667  0.40000000  0.00000000       0.007
  -0.40000000  0.40000000  0.00000000       0.004
   0.46666667  0.46666667  0.00000000       0.002
  -0.46666667  0.46666667  0.00000000       0.004
   0.20000000  0.13333333  0.06666667       0.007
   0.26666667  0.13333333  0.06666667       0.014
   0.33333333  0.13333333  0.06666667       0.014
   0.40000000  0.13333333  0.06666667       0.014
   0.46666667  0.13333333  0.06666667       0.014
  -0.46666667  0.13333333  0.06666667       0.014
   0.26666667  0.20000000  0.06666667       0.007
   0.33333333  0.20000000  0.06666667       0.014
   0.40000000  0.20000000  0.06666667       0.014
   0.46666667  0.20000000  0.06666667       0.014
  -0.46666667  0.20000000  0.06666667       0.014
  -0.40000000  0.20000000  0.06666667       0.014
  -0.33333333  0.20000000  0.06666667       0.014
  -0.26666667  0.20000000  0.06666667       0.014
  -0.20000000  0.20000000  0.06666667       0.014
  -0.13333333  0.20000000  0.06666667       0.007
   0.33333333  0.26666667  0.06666667       0.007
   0.40000000  0.26666667  0.06666667       0.014
   0.46666667  0.26666667  0.06666667       0.014
  -0.46666667  0.26666667  0.06666667       0.014
  -0.40000000  0.26666667  0.06666667       0.014
  -0.33333333  0.26666667  0.06666667       0.014
  -0.26666667  0.26666667  0.06666667       0.014
  -0.20000000  0.26666667  0.06666667       0.007
   0.40000000  0.33333333  0.06666667       0.007
   0.46666667  0.33333333  0.06666667       0.014
  -0.46666667  0.33333333  0.06666667       0.014
  -0.40000000  0.33333333  0.06666667       0.014
  -0.33333333  0.33333333  0.06666667       0.014
  -0.26666667  0.33333333  0.06666667       0.007
   0.46666667  0.40000000  0.06666667       0.007
  -0.46666667  0.40000000  0.06666667       0.014
  -0.40000000  0.40000000  0.06666667       0.014
  -0.33333333  0.40000000  0.06666667       0.007
  -0.46666667  0.46666667  0.06666667       0.007
  -0.40000000  0.46666667  0.06666667       0.007
   0.40000000  0.26666667  0.13333333       0.007
   0.46666667  0.26666667  0.13333333       0.014
  -0.46666667  0.26666667  0.13333333       0.014
  -0.40000000  0.26666667  0.13333333       0.014
   0.46666667  0.33333333  0.13333333       0.007
  -0.46666667  0.33333333  0.13333333       0.014
  -0.40000000  0.33333333  0.13333333       0.014
  -0.33333333  0.33333333  0.13333333       0.014
  -0.26666667  0.33333333  0.13333333       0.014
  -0.20000000  0.33333333  0.13333333       0.007
  -0.46666667  0.40000000  0.13333333       0.007
  -0.40000000  0.40000000  0.13333333       0.014
  -0.33333333  0.40000000  0.13333333       0.014
  -0.26666667  0.40000000  0.13333333       0.007
  -0.40000000  0.46666667  0.13333333       0.007
  -0.33333333  0.46666667  0.13333333       0.007
  -0.40000000  0.40000000  0.20000000       0.007
  -0.33333333  0.40000000  0.20000000       0.014
  -0.33333333  0.46666667  0.20000000       0.007
  -0.26666667  0.46666667  0.20000000       0.007
 
 position of ions in fractional coordinates (direct lattice) 
   0.87500000  0.87500000  0.87500000
   0.12500000  0.12500000  0.12500000
 
 position of ions in cartesian coordinates  (Angst):
   5.07500000  5.07500000  5.07500000
   0.72500000  0.72500000  0.72500000
 


--------------------------------------------------------------------------------------------------------


 k-point  1 :   0.0000 0.0000 0.0000  plane waves:     259
 k-point  2 :   0.0667 0.0000 0.0000  plane waves:     259
 k-point  3 :   0.1333 0.0000 0.0000  plane waves:     262
 k-point  4 :   0.2000 0.0000 0.0000  plane waves:     250
 k-point  5 :   0.2667 0.0000 0.0000  plane waves:     247
 k-point  6 :   0.3333 0.0000 0.0000  plane waves:     256
 k-point  7 :   0.4000 0.0000 0.0000  plane waves:     247
 k-point  8 :   0.4667 0.0000 0.0000  plane waves:     242
 k-point  9 :   0.0667 0.0667 0.0000  plane waves:     259
 k-point 10 :   0.1333 0.0667 0.0000  plane waves:     260
 k-point 11 :   0.2000 0.0667 0.0000  plane waves:     255
 k-point 12 :   0.2667 0.0667 0.0000  plane waves:     249
 k-point 13 :   0.3333 0.0667 0.0000  plane waves:     246
 k-point 14 :   0.4000 0.0667 0.0000  plane waves:     246
 k-point 15 :   0.4667 0.0667 0.0000  plane waves:     246
 k-point 16 :  -0.4667 0.0667 0.0000  plane waves:     248
 k-point 17 :  -0.4000 0.0667 0.0000  plane waves:     245
 k-point 18 :  -0.3333 0.0667 0.0000  plane waves:     249
 k-point 19 :  -0.2667 0.0667 0.0000  plane waves:     247
 k-point 20 :  -0.2000 0.0667 0.0000  plane waves:     247
 k-point 21 :  -0.1333 0.0667 0.0000  plane waves:     255
 k-point 22 :  -0.0667 0.0667 0.0000  plane waves:     259
 k-point 23 :   0.1333 0.1333 0.0000  plane waves:     254
 k-point 24 :   0.2000 0.1333 0.0000  plane waves:     251
 k-point 25 :   0.2667 0.1333 0.0000  plane waves:     244
 k-point 26 :   0.3333 0.1333 0.0000  plane waves:     245
 k-point 27 :   0.4000 0.1333 0.0000  plane waves:     240
 k-point 28 :   0.4667 0.1333 0.0000  plane waves:     246
 k-point 29 :  -0.4667 0.1333 0.0000  plane waves:     246
 k-point 30 :  -0.4000 0.1333 0.0000  plane waves:     248
 k-point 31 :  -0.3333 0.1333 0.0000  plane waves:     252
 k-point 32 :  -0.2667 0.1333 0.0000  plane waves:     251
 k-point 33 :  -0.2000 0.1333 0.0000  plane waves:     247
 k-point 34 :  -0.1333 0.1333 0.0000  plane waves:     251
 k-point 35 :   0.2000 0.2000 0.0000  plane waves:     246
 k-point 36 :   0.2667 0.2000 0.0000  plane waves:     242
 k-point 37 :   0.3333 0.2000 0.0000  plane waves:     247
 k-point 38 :   0.4000 0.2000 0.0000  plane waves:     245
 k-point 39 :   0.4667 0.2000 0.0000  plane waves:     244
 k-point 40 :  -0.4667 0.2000 0.0000  plane waves:     242
 k-point 41 :  -0.4000 0.2000 0.0000  plane waves:     246
 k-point 42 :  -0.3333 0.2000 0.0000  plane waves:     248
 k-point 43 :  -0.2667 0.2000 0.0000  plane waves:     251
 k-point 44 :  -0.2000 0.2000 0.0000  plane waves:     250
 k-point 45 :   0.2667 0.2667 0.0000  plane waves:     242
 k-point 46 :   0.3333 0.2667 0.0000  plane waves:     244
 k-point 47 :   0.4000 0.2667 0.0000  plane waves:     242
 k-point 48 :   0.4667 0.2667 0.0000  plane waves:     244
 k-point 49 :  -0.4667 0.2667 0.0000  plane waves:     244
 k-point 50 :  -0.4000 0.2667 0.0000  plane waves:     243
 k-point 51 :  -0.3333 0.2667 0.0000  plane waves:     244
 k-point 52 :  -0.2667 0.2667 0.0000  plane waves:     248
 k-point 53 :   0.3333 0.3333 0.0000  plane waves:     246
 k-point 54 :   0.4000 0.3333 0.0000  plane waves:     240
 k-point 55 :   0.4667 0.3333 0.0000  plane waves:     241
 k-point 56 :  -0.4667 0.3333 0.0000  plane waves:     241
 k-point 57 :  -0.4000 0.3333 0.0000  plane waves:     242
 k-point 58 :  -0.3333 0.3333 0.0000  plane waves:     236
 k-point 59 :   0.4000 0.4000 0.0000  plane waves:     242
 k-point 60 :   0.4667 0.4000 0.0000  plane waves:     240
 k-point 61 :  -0.4667 0.4000 0.0000  plane waves:     238
 k-point 62 :  -0.4000 0.4000 0.0000  plane waves:     242
 k-point 63 :   0.4667 0.4667 0.0000  plane waves:     242
 k-point 64 :  -0.4667 0.4667 0.0000  plane waves:     244
 k-point 65 :   0.2000 0.1333 0.0667  plane waves:     251
 k-point 66 :   0.2667 0.1333 0.0667  plane waves:     247
 k-point 67 :   0.3333 0.1333 0.0667  plane waves:     252
 k-point 68 :   0.4000 0.1333 0.0667  plane waves:     245
 k-point 69 :   0.4667 0.1333 0.0667  plane waves:     248
 k-point 70 :  -0.4667 0.1333 0.0667  plane waves:     246
 k-point 71 :   0.2667 0.2000 0.0667  plane waves:     243
 k-point 72 :   0.3333 0.2000 0.0667  plane waves:     243
 k-point 73 :   0.4000 0.2000 0.0667  plane waves:     247
 k-point 74 :   0.4667 0.2000 0.0667  plane waves:     245
 k-point 75 :  -0.4667 0.2000 0.0667  plane waves:     247
 k-point 76 :  -0.4000 0.2000 0.0667  plane waves:     247
 k-point 77 :  -0.3333 0.2000 0.0667  plane waves:     247
 k-point 78 :  -0.2667 0.2000 0.0667  plane waves:     245
 k-point 79 :  -0.2000 0.2000 0.0667  plane waves:     247
 k-point 80 :  -0.1333 0.2000 0.0667  plane waves:     246
 k-point 81 :   0.3333 0.2667 0.0667  plane waves:     243
 k-point 82 :   0.4000 0.2667 0.0667  plane waves:     244
 k-point 83 :   0.4667 0.2667 0.0667  plane waves:     245
 k-point 84 :  -0.4667 0.2667 0.0667  plane waves:     243
 k-point 85 :  -0.4000 0.2667 0.0667  plane waves:     246
 k-point 86 :  -0.3333 0.2667 0.0667  plane waves:     243
 k-point 87 :  -0.2667 0.2667 0.0667  plane waves:     248
 k-point 88 :  -0.2000 0.2667 0.0667  plane waves:     248
 k-point 89 :   0.4000 0.3333 0.0667  plane waves:     241
 k-point 90 :   0.4667 0.3333 0.0667  plane waves:     244
 k-point 91 :  -0.4667 0.3333 0.0667  plane waves:     242
 k-point 92 :  -0.4000 0.3333 0.0667  plane waves:     244
 k-point 93 :  -0.3333 0.3333 0.0667  plane waves:     242
 k-point 94 :  -0.2667 0.3333 0.0667  plane waves:     242
 k-point 95 :   0.4667 0.4000 0.0667  plane waves:     239
 k-point 96 :  -0.4667 0.4000 0.0667  plane waves:     238
 k-point 97 :  -0.4000 0.4000 0.0667  plane waves:     239
 k-point 98 :  -0.3333 0.4000 0.0667  plane waves:     242
 k-point 99 :  -0.4667 0.4667 0.0667  plane waves:     240
 k-point ** :  -0.4000 0.4667 0.0667  plane waves:     240
 k-point ** :   0.4000 0.2667 0.1333  plane waves:     241
 k-point ** :   0.4667 0.2667 0.1333  plane waves:     246
 k-point ** :  -0.4667 0.2667 0.1333  plane waves:     243
 k-point ** :  -0.4000 0.2667 0.1333  plane waves:     244
 k-point ** :   0.4667 0.3333 0.1333  plane waves:     247
 k-point ** :  -0.4667 0.3333 0.1333  plane waves:     248
 k-point ** :  -0.4000 0.3333 0.1333  plane waves:     246
 k-point ** :  -0.3333 0.3333 0.1333  plane waves:     244
 k-point ** :  -0.2667 0.3333 0.1333  plane waves:     242
 k-point ** :  -0.2000 0.3333 0.1333  plane waves:     245
 k-point ** :  -0.4667 0.4000 0.1333  plane waves:     247
 k-point ** :  -0.4000 0.4000 0.1333  plane waves:     247
 k-point ** :  -0.3333 0.4000 0.1333  plane waves:     247
 k-point ** :  -0.2667 0.4000 0.1333  plane waves:     246
 k-point ** :  -0.4000 0.4667 0.1333  plane waves:     244
 k-point ** :  -0.3333 0.4667 0.1333  plane waves:     246
 k-point ** :  -0.4000 0.4000 0.2000  plane waves:     245
 k-point ** :  -0.3333 0.4000 0.2000  plane waves:     246
 k-point ** :  -0.3333 0.4667 0.2000  plane waves:     245
 k-point ** :  -0.2667 0.4667 0.2000  plane waves:     248

 maximum and minimum number of plane-waves per node :       262      236

 maximum number of plane-waves:       262
 maximum index in each direction: 
   IXMAX=    4   IYMAX=    4   IZMAX=    4
   IXMIN=   -4   IYMIN=   -4   IZMIN=   -4

 WARNING: aliasing errors must be expected set NGX to  18 to avoid them
 WARNING: aliasing errors must be expected set NGY to  18 to avoid them
 WARNING: aliasing errors must be expected set NGZ to  18 to avoid them
 aliasing errors are usually negligible using standard VASP settings
 and one can safely disregard these warnings

 serial   3D FFT for wavefunctions
 parallel 3D FFT for charge:
    minimum data exchange during FFTs selected (reduces bandwidth)


 total amount of memory used by VASP on root node    32915. kBytes
========================================================================

   base      :      30000. kBytes
   nonl-proj :       2097. kBytes
   fftplans  :         69. kBytes
   grid      :        191. kBytes
   one-center:          6. kBytes
   wavefun   :        552. kBytes
 
     INWAV:  cpu time    0.0000: real time    0.0000
 Broyden mixing: mesh for mixing (old mesh)
   NGX =  9   NGY =  9   NGZ =  9
  (NGX  = 28   NGY  = 28   NGZ  = 28)
  gives a total of    729 points

 initial charge density was supplied:
 charge density of overlapping atoms calculated
 number of electron       8.0000000 magnetization 
 keeping initial charge density in first step


--------------------------------------------------------------------------------------------------------


 Maximum index for augmentation-charges          141 (set IRDMAX)


--------------------------------------------------------------------------------------------------------


 First call to EWALD:  gamma=   0.485
 Maximum number of real-space cells 3x 3x 3
 Maximum number of reciprocal cells 3x 3x 3

 FEWALD executed in parallel
    FEWALD:  cpu time    0.0030: real time    0.0021


----------------------------------------- Iteration    1(   1)  ---------------------------------------


    POTLOK:  cpu time    0.0010: real time    0.0022
    SETDIJ:  cpu time    0.0020: real time    0.0015
     EDDAV:  cpu time    0.3859: real time    0.3861
       DOS:  cpu time    0.0010: real time    0.0008
    --------------------------------------------
      LOOP:  cpu time    0.3919: real time    0.4455

 eigenvalue-minimisations  :  4256
 total energy-change (2. order) :-0.8019375E+01  (-0.1699729E+03)
 number of electron       8.0000000 magnetization 
 augmentation part        8.0000000 magnetization 

 Free energy of the ion-electron system (eV)
  ---------------------------------------------------
  alpha Z        PSCENC =         2.76051321
  Ewald energy   TEWEN  =      -213.98274834
  -Hartree energ DENC   =       -14.16697611
  -exchange      EXHF   =         0.00000000
  -V(xc)+E(xc)   XCENC  =       -19.33166050
  PAW double counting   =        65.95520812      -30.76852678
  entropy T*S    EENTRO =        -0.00051411
  eigenvalues    EBANDS =        -4.58824825
  atomic energy  EATOM  =       206.10357749
  Solvation  Ediel_sol  =         0.00000000
  ---------------------------------------------------
  free energy    TOTEN  =        -8.01937527 eV

  energy without entropy =       -8.01886115  energy(sigma->0) =       -8.01911821


--------------------------------------------------------------------------------------------------------




----------------------------------------- Iteration    1(   2)  ---------------------------------------


     EDDAV:  cpu time    0.6009: real time    0.6041
       DOS:  cpu time    0.0010: real time    0.0006
    --------------------------------------------
      LOOP:  cpu time    0.6029: real time    0.6093

 eigenvalue-minimisations  :  5872
 total energy-change (2. order) :-0.2554919E+01  (-0.2546425E+01)
 number of electron       8.0000000 magnetization 
 augmentation part        8.0000000 magnetization 

 Free energy of the ion-electron system (eV)
  ---------------------------------------------------
  alpha Z        PSCENC =         2.76051321
  Ewald energy   TEWEN  =      -213.98274834
  -Hartree energ DENC   =       -14.16697611
  -exchange      EXHF   =         0.00000000
  -V(xc)+E(xc)   XCENC  =       -19.33166050
  PAW double counting   =        65.95520812      -30.76852678
  entropy T*S    EENTRO =        -0.00000000
  eigenvalues    EBANDS =        -7.14368151
  atomic energy  EATOM  =       206.10357749
  Solvation  Ediel_sol  =         0.00000000
  ---------------------------------------------------
  free energy    TOTEN  =       -10.57429441 eV

  energy without entropy =      -10.57429441  energy(sigma->0) =      -10.57429441


--------------------------------------------------------------------------------------------------------




----------------------------------------- Iteration    1(   3)  ---------------------------------------


     EDDAV:  cpu time    0.4209: real time    0.4216
       DOS:  cpu time    0.0010: real time    0.0006
    --------------------------------------------
      LOOP:  cpu time    0.4229: real time    0.4310

 eigenvalue-minimisations  :  4480
 total energy-change (2. order) :-0.7990331E-02  (-0.7990331E-02)
 number of electron       8.0000000 magnetization 
 augmentation part        8.0000000 magnetization 

 Free energy of the ion-electron system (eV)
  ---------------------------------------------------
  alpha Z        PSCENC =         2.76051321
  Ewald energy   TEWEN  =      -213.98274834
  -Hartree energ DENC   =       -14.16697611
  -exchange      EXHF   =         0.00000000
  -V(xc)+E(xc)   XCENC  =       -19.33166050
  PAW double counting   =        65.95520812      -30.76852678
  entropy T*S    EENTRO =        -0.00000000
  eigenvalues    EBANDS =        -7.15167184
  atomic energy  EATOM  =       206.10357749
  Solvation  Ediel_sol  =         0.00000000
  ---------------------------------------------------
  free energy    TOTEN  =       -10.58228474 eV

  energy without entropy =      -10.58228474  energy(sigma->0) =      -10.58228474


--------------------------------------------------------------------------------------------------------




----------------------------------------- Iteration    1(   4)  ---------------------------------------


     EDDAV:  cpu time    0.7839: real time    0.7865
       DOS:  cpu time    0.0000: real time    0.0006
    --------------------------------------------
      LOOP:  cpu time    0.7839: real time    0.7916

 eigenvalue-minimisations  :  6864
 total energy-change (2. order) :-0.9250926E-05  (-0.9250921E-05)
 number of electron       8.0000000 magnetization 
 augmentation part        8.0000000 magnetization 

 Free energy of the ion-electron system (eV)
  ---------------------------------------------------
  alpha Z        PSCENC =         2.76051321
  Ewald energy   TEWEN  =      -213.98274834
  -Hartree energ DENC   =       -14.16697611
  -exchange      EXHF   =         0.00000000
  -V(xc)+E(xc)   XCENC  =       -19.33166050
  PAW double counting   =        65.95520812      -30.76852678
  entropy T*S    EENTRO =        -0.00000000
  eigenvalues    EBANDS =        -7.15168109
  atomic energy  EATOM  =       206.10357749
  Solvation  Ediel_sol  =         0.00000000
  ---------------------------------------------------
  free energy    TOTEN  =       -10.58229399 eV

  energy without entropy =      -10.58229399  energy(sigma->0) =      -10.58229399


--------------------------------------------------------------------------------------------------------




----------------------------------------- Iteration    1(   5)  ---------------------------------------


     EDDAV:  cpu time    0.4089: real time    0.4089
       DOS:  cpu time    0.0000: real time    0.0006
    CHARGE:  cpu time    0.0060: real time    0.0062
    MIXING:  cpu time    0.0010: real time    0.0004
    --------------------------------------------
      LOOP:  cpu time    0.4179: real time    0.4258

 eigenvalue-minimisations  :  4384
 total energy-change (2. order) :-0.1418812E-09  (-0.1372176E-09)
 number of electron       8.0000037 magnetization 
 augmentation part       -0.4612228 magnetization 

 Broyden mixing:
  rms(total) = 0.25166E+00    rms(broyden)= 0.25163E+00
  rms(prec ) = 0.69178E+00
  weight for this iteration     100.00

 Free energy of the ion-electron system (eV)
  ---------------------------------------------------
  alpha Z        PSCENC =         2.76051321
  Ewald energy   TEWEN  =      -213.98274834
  -Hartree energ DENC   =       -14.16697611
  -exchange      EXHF   =         0.00000000
  -V(xc)+E(xc)   XCENC  =       -19.33166050
  PAW double counting   =        65.95520812      -30.76852678
  entropy T*S    EENTRO =        -0.00000000
  eigenvalues    EBANDS =        -7.15168109
  atomic energy  EATOM  =       206.10357749
  Solvation  Ediel_sol  =         0.00000000
  ---------------------------------------------------
  free energy    TOTEN  =       -10.58229399 eV

  energy without entropy =      -10.58229399  energy(sigma->0) =      -10.58229399


--------------------------------------------------------------------------------------------------------




----------------------------------------- Iteration    1(   6)  ---------------------------------------


    POTLOK:  cpu time    0.0010: real time    0.0015
    SETDIJ:  cpu time    0.0020: real time    0.0014
     EDDAV:  cpu time    0.5039: real time    0.5063
       DOS:  cpu time    0.0010: real time    0.0006
    CHARGE:  cpu time    0.0060: real time    0.0060
    MIXING:  cpu time    0.0000: real time    0.0003
    --------------------------------------------
      LOOP:  cpu time    0.5139: real time    0.5205

 eigenvalue-minimisations  :  5040
 total energy-change (2. order) : 0.5794604E-01  (-0.3009628E-02)
 number of electron       8.0000037 magnetization 
 augmentation part       -0.4582972 magnetization 

 Broyden mixing:
  rms(total) = 0.15312E+00    rms(broyden)= 0.15312E+00
  rms(prec ) = 0.42165E+00
  weight for this iteration     100.00

 eigenvalues of (default mixing * dielectric matrix)
  average eigenvalue GAMMA=   2.5382
  2.5382

 Free energy of the ion-electron system (eV)
  ---------------------------------------------------
  alpha Z        PSCENC =         2.76051321
  Ewald energy   TEWEN  =      -213.98274834
  -Hartree energ DENC   =       -15.30495446
  -exchange      EXHF   =         0.00000000
  -V(xc)+E(xc)   XCENC  =       -19.14318920
  PAW double counting   =        68.38615067      -33.24871303
  entropy T*S    EENTRO =        -0.00000000
  eigenvalues    EBANDS =        -6.09498430
  atomic energy  EATOM  =       206.10357749
  Solvation  Ediel_sol  =         0.00000000
  ---------------------------------------------------
  free energy    TOTEN  =       -10.52434795 eV

  energy without entropy =      -10.52434795  energy(sigma->0) =      -10.52434795


--------------------------------------------------------------------------------------------------------




----------------------------------------- Iteration    1(   7)  ---------------------------------------


    POTLOK:  cpu time    0.0010: real time    0.0016
    SETDIJ:  cpu time    0.0010: real time    0.0014
     EDDAV:  cpu time    0.5879: real time    0.5861
       DOS:  cpu time    0.0000: real time    0.0006
    CHARGE:  cpu time    0.0060: real time    0.0060
    MIXING:  cpu time    0.0000: real time    0.0002
    --------------------------------------------
      LOOP:  cpu time    0.5959: real time    0.6006

 eigenvalue-minimisations  :  5632
 total energy-change (2. order) : 0.3169162E-01  (-0.6976297E-02)
 number of electron       8.0000037 magnetization 
 augmentation part       -0.4550347 magnetization 

 Broyden mixing:
  rms(total) = 0.10798E-01    rms(broyden)= 0.10797E-01
  rms(prec ) = 0.27280E-01
  weight for this iteration     100.00

 eigenvalues of (default mixing * dielectric matrix)
  average eigenvalue GAMMA=   2.5253
  2.5253  2.5253

 Free energy of the ion-electron system (eV)
  ---------------------------------------------------
  alpha Z        PSCENC =         2.76051321
  Ewald energy   TEWEN  =      -213.98274834
  -Hartree energ DENC   =       -17.31503498
  -exchange      EXHF   =         0.00000000
  -V(xc)+E(xc)   XCENC  =       -18.81053449
  PAW double counting   =        71.63010403      -36.55490610
  entropy T*S    EENTRO =        -0.00000000
  eigenvalues    EBANDS =        -4.32362717
  atomic energy  EATOM  =       206.10357749
  Solvation  Ediel_sol  =         0.00000000
  ---------------------------------------------------
  free energy    TOTEN  =       -10.49265634 eV

  energy without entropy =      -10.49265634  energy(sigma->0) =      -10.49265634


--------------------------------------------------------------------------------------------------------




----------------------------------------- Iteration    1(   8)  ---------------------------------------


    POTLOK:  cpu time    0.0010: real time    0.0015
    SETDIJ:  cpu time    0.0020: real time    0.0014
     EDDAV:  cpu time    0.4579: real time    0.4610
       DOS:  cpu time    0.0010: real time    0.0007
    CHARGE:  cpu time    0.0050: real time    0.0060
    MIXING:  cpu time    0.0010: real time    0.0002
    --------------------------------------------
      LOOP:  cpu time    0.4689: real time    0.4801

 eigenvalue-minimisations  :  4736
 total energy-change (2. order) :-0.1352935E-02  (-0.2253105E-03)
 number of electron       8.0000037 magnetization 
 augmentation part       -0.4553491 magnetization 

 Broyden mixing:
  rms(total) = 0.26600E-02    rms(broyden)= 0.26598E-02
  rms(prec ) = 0.85143E-02
  weight for this iteration     100.00

 eigenvalues of (default mixing * dielectric matrix)
  average eigenvalue GAMMA=   2.1868
  1.1460  2.3990  3.0154

 Free energy of the ion-electron system (eV)
  ---------------------------------------------------
  alpha Z        PSCENC =         2.76051321
  Ewald energy   TEWEN  =      -213.98274834
  -Hartree energ DENC   =       -17.29381276
  -exchange      EXHF   =         0.00000000
  -V(xc)+E(xc)   XCENC  =       -18.81098280
  PAW double counting   =        70.93136104      -35.83737415
  entropy T*S    EENTRO =        -0.00000000
  eigenvalues    EBANDS =        -4.36454297
  atomic energy  EATOM  =       206.10357749
  Solvation  Ediel_sol  =         0.00000000
  ---------------------------------------------------
  free energy    TOTEN  =       -10.49400927 eV

  energy without entropy =      -10.49400927  energy(sigma->0) =      -10.49400927


--------------------------------------------------------------------------------------------------------




----------------------------------------- Iteration    1(   9)  ---------------------------------------


    POTLOK:  cpu time    0.0010: real time    0.0016
    SETDIJ:  cpu time    0.0010: real time    0.0014
     EDDAV:  cpu time    0.6769: real time    0.6768
       DOS:  cpu time    0.0010: real time    0.0006
    CHARGE:  cpu time    0.0060: real time    0.0060
    MIXING:  cpu time    0.0000: real time    0.0002
    --------------------------------------------
      LOOP:  cpu time    0.6869: real time    0.6914

 eigenvalue-minimisations  :  6272
 total energy-change (2. order) :-0.1572036E-03  (-0.1784923E-04)
 number of electron       8.0000037 magnetization 
 augmentation part       -0.4554039 magnetization 

 Broyden mixing:
  rms(total) = 0.11576E-02    rms(broyden)= 0.11576E-02
  rms(prec ) = 0.30663E-02
  weight for this iteration     100.00

 eigenvalues of (default mixing * dielectric matrix)
  average eigenvalue GAMMA=   2.2704
  0.9515  3.1156  2.5073  2.5073

 Free energy of the ion-electron system (eV)
  ---------------------------------------------------
  alpha Z        PSCENC =         2.76051321
  Ewald energy   TEWEN  =      -213.98274834
  -Hartree energ DENC   =       -17.33665844
  -exchange      EXHF   =         0.00000000
  -V(xc)+E(xc)   XCENC  =       -18.80406312
  PAW double counting   =        70.84144915      -35.74482473
  entropy T*S    EENTRO =        -0.00000000
  eigenvalues    EBANDS =        -4.33141170
  atomic energy  EATOM  =       206.10357749
  Solvation  Ediel_sol  =         0.00000000
  ---------------------------------------------------
  free energy    TOTEN  =       -10.49416647 eV

  energy without entropy =      -10.49416647  energy(sigma->0) =      -10.49416647


--------------------------------------------------------------------------------------------------------




----------------------------------------- Iteration    1(  10)  ---------------------------------------


    POTLOK:  cpu time    0.0010: real time    0.0015
    SETDIJ:  cpu time    0.0020: real time    0.0014
     EDDAV:  cpu time    0.4979: real time    0.5011
       DOS:  cpu time    0.0000: real time    0.0006
    CHARGE:  cpu time    0.0060: real time    0.0060
    MIXING:  cpu time    0.0010: real time    0.0002
    --------------------------------------------
      LOOP:  cpu time    0.5089: real time    0.5206

 eigenvalue-minimisations  :  5024
 total energy-change (2. order) :-0.1249446E-04  (-0.1965113E-05)
 number of electron       8.0000037 magnetization 
 augmentation part       -0.4552917 magnetization 

 Broyden mixing:
  rms(total) = 0.22886E-03    rms(broyden)= 0.22878E-03
  rms(prec ) = 0.64396E-03
  weight for this iteration     100.00

 eigenvalues of (default mixing * dielectric matrix)
  average eigenvalue GAMMA=   2.1115
  3.3911  2.7009  2.2075  0.9453  1.3125

 Free energy of the ion-electron system (eV)
  ---------------------------------------------------
  alpha Z        PSCENC =         2.76051321
  Ewald energy   TEWEN  =      -213.98274834
  -Hartree energ DENC   =       -17.34973113
  -exchange      EXHF   =         0.00000000
  -V(xc)+E(xc)   XCENC  =       -18.80371264
  PAW double counting   =        70.89679450      -35.80218968
  entropy T*S    EENTRO =        -0.00000000
  eigenvalues    EBANDS =        -4.31668239
  atomic energy  EATOM  =       206.10357749
  Solvation  Ediel_sol  =         0.00000000
  ---------------------------------------------------
  free energy    TOTEN  =       -10.49417897 eV

  energy without entropy =      -10.49417897  energy(sigma->0) =      -10.49417897


--------------------------------------------------------------------------------------------------------




----------------------------------------- Iteration    1(  11)  ---------------------------------------


    POTLOK:  cpu time    0.0010: real time    0.0015
    SETDIJ:  cpu time    0.0010: real time    0.0014
     EDDAV:  cpu time    0.6999: real time    0.7025
       DOS:  cpu time    0.0000: real time    0.0006
    CHARGE:  cpu time    0.0060: real time    0.0060
    MIXING:  cpu time    0.0000: real time    0.0002
    --------------------------------------------
      LOOP:  cpu time    0.7089: real time    0.7169

 eigenvalue-minimisations  :  6320
 total energy-change (2. order) : 0.1012601E-05  (-0.1033817E-06)
 number of electron       8.0000037 magnetization 
 augmentation part       -0.4553123 magnetization 

 Broyden mixing:
  rms(total) = 0.43329E-04    rms(broyden)= 0.43323E-04
  rms(prec ) = 0.70195E-04
  weight for this iteration     100.00

 eigenvalues of (default mixing * dielectric matrix)
  average eigenvalue GAMMA=   2.1613
  3.3306  2.8461  2.5815  2.2410  0.9524  1.0161

 Free energy of the ion-electron system (eV)
  ---------------------------------------------------
  alpha Z        PSCENC =         2.76051321
  Ewald energy   TEWEN  =      -213.98274834
  -Hartree energ DENC   =       -17.34733615
  -exchange      EXHF   =         0.00000000
  -V(xc)+E(xc)   XCENC  =       -18.80389981
  PAW double counting   =        70.87587413      -35.78062376
  entropy T*S    EENTRO =        -0.00000000
  eigenvalues    EBANDS =        -4.31953474
  atomic energy  EATOM  =       206.10357749
  Solvation  Ediel_sol  =         0.00000000
  ---------------------------------------------------
  free energy    TOTEN  =       -10.49417796 eV

  energy without entropy =      -10.49417796  energy(sigma->0) =      -10.49417796


--------------------------------------------------------------------------------------------------------




----------------------------------------- Iteration    1(  12)  ---------------------------------------


    POTLOK:  cpu time    0.0010: real time    0.0015
    SETDIJ:  cpu time    0.0010: real time    0.0014
     EDDAV:  cpu time    0.2910: real time    0.2899
       DOS:  cpu time    0.0000: real time    0.0006
    --------------------------------------------
      LOOP:  cpu time    0.2950: real time    0.3024

 eigenvalue-minimisations  :  3024
 total energy-change (2. order) : 0.1300538E-06  (-0.3999696E-08)
 number of electron       8.0000037 magnetization 
 augmentation part       -0.4553123 magnetization 

 Free energy of the ion-electron system (eV)
  ---------------------------------------------------
  alpha Z        PSCENC =         2.76051321
  Ewald energy   TEWEN  =      -213.98274834
  -Hartree energ DENC   =       -17.34748076
  -exchange      EXHF   =         0.00000000
  -V(xc)+E(xc)   XCENC  =       -18.80387767
  PAW double counting   =        70.87579097      -35.78046453
  entropy T*S    EENTRO =        -0.00000000
  eigenvalues    EBANDS =        -4.31948821
  atomic energy  EATOM  =       206.10357749
  Solvation  Ediel_sol  =         0.00000000
  ---------------------------------------------------
  free energy    TOTEN  =       -10.49417783 eV

  energy without entropy =      -10.49417783  energy(sigma->0) =      -10.49417783


--------------------------------------------------------------------------------------------------------




 average (electrostatic) potential at core
  the test charge radii are     0.9892
  (the norm of the test charge is              1.0000)
       1 -85.3297       2 -85.3297
 
 
 
 E-fermi :   4.4967     XC(G=0):  -8.6557     alpha+bet : -9.8341


 k-point     1 :       0.0000    0.0000    0.0000
  band No.  band energies     occupation 
      1      -6.7157      2.00000
      2       4.0254      2.00000
      3       4.0254      2.00000
      4       4.0254      2.00000
      5       5.2541      0.00000
      6       6.4935      0.00000
      7       6.4935      0.00000
      8       6.4935      0.00000
      9      11.2372      0.00000
     10      11.7591      0.00000
     11      11.7591      0.00000
     12      14.6843      0.00000
     13      14.6843      0.00000
     14      14.6843      0.00000
     15      18.2698      0.00000
     16      25.3451      0.00000

 k-point     2 :       0.0667    0.0000    0.0000
  band No.  band energies     occupation 
      1      -6.6668      2.00000
      2       3.3381      2.00000
      3       3.9481      2.00000
      4       3.9481      2.00000
      5       5.6415      0.00000
      6       6.6073      0.00000
      7       6.6073      0.00000
      8       6.7135      0.00000
      9      11.4538      0.00000
     10      11.5958      0.00000
     11      11.5958      0.00000
     12      14.4909      0.00000
     13      15.0177      0.00000
     14      15.0177      0.00000
     15      18.6226      0.00000
     16      24.2905      0.00000

 k-point     3 :       0.1333    0.0000    0.0000
  band No.  band energies     occupation 
      1      -6.5211      2.00000
      2       2.2453      2.00000
      3       3.7600      2.00000
      4       3.7600      2.00000
      5       5.6971      0.00000
      6       6.8844      0.00000
      7       6.8844      0.00000
      8       7.5617      0.00000
      9      11.3027      0.00000
     10      11.3027      0.00000
     11      11.9999      0.00000
     12      14.1432      0.00000
     13      15.8326      0.00000
     14      15.8326      0.00000
     15      19.4776      0.00000
     16      22.9177      0.00000

 k-point     4 :       0.2000    0.0000    0.0000
  band No.  band energies     occupation 
      1      -6.2828      2.00000
      2       1.1424      2.00000
      3       3.5390      2.00000
      4       3.5390      2.00000
      5       5.5055      0.00000
      6       7.1928      0.00000
      7       7.1929      0.00000
      8       8.6404      0.00000
      9      11.1763      0.00000
     10      11.1763      0.00000
     11      12.4583      0.00000
     12      14.1892      0.00000
     13      16.8980      0.00000
     14      16.8980      0.00000
     15      20.3418      0.00000
     16      21.4417      0.00000

 k-point     5 :       0.2667    0.0000    0.0000
  band No.  band energies     occupation 
      1      -5.9612      2.00000
      2       0.0975      2.00000
      3       3.3333      2.00000
      4       3.3334      2.00000
      5       5.2839      0.00000
      6       7.3989      0.00000
      7       7.3990      0.00000
      8       9.7453      0.00000
      9      11.3357      0.00000
     10      11.3357      0.00000
     11      12.3997      0.00000
     12      15.0108      0.00000
     13      17.8739      0.00000
     14      17.8739      0.00000
     15      19.7747      0.00000
     16      20.1427      0.00000

 k-point     6 :       0.3333    0.0000    0.0000
  band No.  band energies     occupation 
      1      -5.5767      2.00000
      2      -0.8415      2.00000
      3       3.1663      2.00000
      4       3.1663      2.00000
      5       5.0930      0.00000
      6       7.4666      0.00000
      7       7.4667      0.00000
      8      10.7773      0.00000
      9      11.8484      0.00000
     10      11.8484      0.00000
     11      12.2577      0.00000
     12      15.9477      0.00000
     13      17.5165      0.00000
     14      17.5165      0.00000
     15      18.9267      0.00000
     16      20.3546      0.00000

 k-point     7 :       0.4000    0.0000    0.0000
  band No.  band energies     occupation 
      1      -5.1778      2.00000
      2      -1.6149      2.00000
      3       3.0529      2.00000
      4       3.0529      2.00000
      5       4.9607      0.00000
      6       7.4587      0.00000
      7       7.4587      0.00000
      8      11.3719      0.00000
      9      12.6226      0.00000
     10      12.6807      0.00000
     11      12.6808      0.00000
     12      15.8461      0.00000
     13      16.2498      0.00000
     14      16.2498      0.00000
     15      19.3653      0.00000
     16      21.6994      0.00000

 k-point     8 :       0.4667    0.0000    0.0000
  band No.  band energies     occupation 
      1      -4.8848      2.00000
      2      -2.0970      2.00000
      3       2.9957      2.00000
      4       2.9957      2.00000
      5       4.8920      0.00000
      6       7.4367      0.00000
      7       7.4367      0.00000
      8      11.4361      0.00000
      9      13.5920      0.00000
     10      13.7320      0.00000
     11      13.7321      0.00000
     12      14.8928      0.00000
     13      14.9436      0.00000
     14      14.9436      0.00000
     15      20.8563      0.00000
     16      22.7496      0.00000

 k-point     9 :       0.0667    0.0667    0.0000
  band No.  band energies     occupation 
      1      -6.6504      2.00000
      2       3.3395      2.00000
      3       3.7957      2.00000
      4       3.7957      2.00000
      5       5.9218      0.00000
      6       6.3424      0.00000
      7       6.8047      0.00000
      8       6.8047      0.00000
      9      11.2770      0.00000
     10      11.5254      0.00000
     11      11.8349      0.00000
     12      14.8071      0.00000
     13      14.8071      0.00000
     14      15.0191      0.00000
     15      18.7602      0.00000
     16      24.1010      0.00000

 k-point    10 :       0.1333    0.0667    0.0000
  band No.  band energies     occupation 
      1      -6.5367      2.00000
      2       2.4968      2.00000
      3       3.5667      2.00000
      4       3.6605      2.00000
      5       6.1274      0.00000
      6       6.3953      0.00000
      7       7.1392      0.00000
      8       7.4100      0.00000
      9      10.8935      0.00000
     10      11.7764      0.00000
     11      11.9723      0.00000
     12      14.5271      0.00000
     13      15.2414      0.00000
     14      15.8000      0.00000
     15      19.4801      0.00000
     16      22.8804      0.00000

 k-point    11 :       0.2000    0.0667    0.0000
  band No.  band energies     occupation 
      1      -6.3288      2.00000
[...]
      5       5.4746      0.00000
      6       6.1381      0.00000
      7      11.4365      0.00000
      8      11.5077      0.00000
      9      13.1117      0.00000
     10      13.7640      0.00000
     11      15.3843      0.00000
     12      16.1773      0.00000
     13      17.4480      0.00000
     14      17.6044      0.00000
     15      20.0828      0.00000
     16      20.3406      0.00000

 k-point   101 :       0.4000    0.2667    0.1333
  band No.  band energies     occupation 
      1      -5.4602      2.00000
      2      -0.4315      2.00000
      3       1.6500      2.00000
      4       2.6897      2.00000
      5       6.4659      0.00000
      6       7.1494      0.00000
      7       8.2492      0.00000
      8       9.2426      0.00000
      9      11.3756      0.00000
     10      13.6679      0.00000
     11      14.0088      0.00000
     12      15.7138      0.00000
     13      16.8479      0.00000
     14      17.9141      0.00000
     15      18.5846      0.00000
     16      20.6917      0.00000

 k-point   102 :       0.4667    0.2667    0.1333
  band No.  band energies     occupation 
      1      -5.0783      2.00000
      2      -1.0839      2.00000
      3       1.2996      2.00000
      4       2.4707      2.00000
      5       6.6953      0.00000
      6       7.3223      0.00000
      7       8.2478      0.00000
      8       9.5955      0.00000
      9      11.8624      0.00000
     10      13.3968      0.00000
     11      14.7669      0.00000
     12      15.7732      0.00000
     13      16.9609      0.00000
     14      17.8649      0.00000
     15      19.0758      0.00000
     16      20.6670      0.00000

 k-point   103 :      -0.4667    0.2667    0.1333
  band No.  band energies     occupation 
      1      -4.6749      2.00000
      2      -1.7076      2.00000
      3       1.1011      2.00000
      4       2.2828      2.00000
      5       6.7194      0.00000
      6       7.3706      0.00000
      7       8.8133      0.00000
      8       9.7464      0.00000
      9      12.2792      0.00000
     10      12.7361      0.00000
     11      15.2903      0.00000
     12      15.8681      0.00000
     13      16.8352      0.00000
     14      18.3090      0.00000
     15      19.9973      0.00000
     16      20.4267      0.00000

 k-point   104 :      -0.4000    0.2667    0.1333
  band No.  band energies     occupation 
      1      -4.3678      2.00000
      2      -2.1369      2.00000
      3       1.0133      2.00000
      4       2.1772      2.00000
      5       6.7151      0.00000
      6       7.3065      0.00000
      7       9.4631      0.00000
      8      10.0779      0.00000
      9      11.1439      0.00000
     10      13.7194      0.00000
     11      14.8482      0.00000
     12      15.5243      0.00000
     13      17.4462      0.00000
     14      18.8848      0.00000
     15      19.7749      0.00000
     16      20.9983      0.00000

 k-point   105 :       0.4667    0.3333    0.1333
  band No.  band energies     occupation 
      1      -4.9221      2.00000
      2      -1.2193      2.00000
      3       1.3401      2.00000
      4       2.0891      2.00000
      5       6.2367      0.00000
      6       7.0663      0.00000
      7       8.5147      0.00000
      8      10.3743      0.00000
      9      12.4094      0.00000
     10      13.6876      0.00000
     11      14.8512      0.00000
     12      16.4597      0.00000
     13      16.7979      0.00000
     14      17.5936      0.00000
     15      18.8008      0.00000
     16      20.1331      0.00000

 k-point   106 :      -0.4667    0.3333    0.1333
  band No.  band energies     occupation 
      1      -4.5169      2.00000
      2      -1.7658      2.00000
      3       1.0287      2.00000
      4       1.8914      2.00000
      5       6.5220      0.00000
      6       7.5477      0.00000
      7       8.2862      0.00000
      8      10.6861      0.00000
      9      12.5001      0.00000
     10      13.0643      0.00000
     11      15.7767      0.00000
     12      16.1327      0.00000
     13      17.2535      0.00000
     14      17.6394      0.00000
     15      19.4174      0.00000
     16      20.4939      0.00000

 k-point   107 :      -0.4000    0.3333    0.1333
  band No.  band energies     occupation 
      1      -4.1512      2.00000
      2      -2.2205      2.00000
      3       0.8102      2.00000
      4       1.7993      2.00000
      5       6.6389      0.00000
      6       8.0093      0.00000
      7       8.5459      0.00000
      8      10.6024      0.00000
      9      11.3940      0.00000
     10      13.9932      0.00000
     11      14.9515      0.00000
     12      16.4153      0.00000
     13      17.7134      0.00000
     14      18.6753      0.00000
     15      19.8963      0.00000
     16      20.9550      0.00000

 k-point   108 :      -0.3333    0.3333    0.1333
  band No.  band energies     occupation 
      1      -4.0383      2.00000
      2      -2.3524      2.00000
      3       0.6946      2.00000
      4       1.8345      2.00000
      5       6.7761      0.00000
      6       7.8598      0.00000
      7       9.6295      0.00000
      8       9.8231      0.00000
      9      10.9632      0.00000
     10      13.6757      0.00000
     11      15.2616      0.00000
     12      16.4264      0.00000
     13      18.3685      0.00000
     14      19.1288      0.00000
     15      19.7200      0.00000
     16      20.2216      0.00000

 k-point   109 :      -0.2667    0.3333    0.1333
  band No.  band energies     occupation 
      1      -4.2913      2.00000
      2      -2.0500      2.00000
      3       0.7110      2.00000
      4       1.9832      2.00000
      5       6.9581      0.00000
      6       7.7199      0.00000
      7       8.8088      0.00000
      8      10.5352      0.00000
      9      11.1331      0.00000
     10      12.6861      0.00000
     11      16.2631      0.00000
     12      16.4270      0.00000
     13      17.9797      0.00000
     14      18.1084      0.00000
     15      19.3901      0.00000
     16      20.6490      0.00000

 k-point   110 :      -0.2000    0.3333    0.1333
  band No.  band energies     occupation 
      1      -4.6879      2.00000
      2      -1.5647      2.00000
      3       0.9006      2.00000
      4       2.2132      2.00000
      5       7.1456      0.00000
      6       7.3740      0.00000
      7       8.2269      0.00000
      8      10.2696      0.00000
      9      12.0385      0.00000
     10      12.2890      0.00000
     11      15.9114      0.00000
     12      16.6828      0.00000
     13      16.8446      0.00000
     14      17.8769      0.00000
     15      19.2955      0.00000
     16      20.5566      0.00000

 k-point   111 :      -0.4667    0.4000    0.1333
  band No.  band energies     occupation 
      1      -4.2880      2.00000
      2      -2.0158      2.00000
      3       1.1694      2.00000
      4       1.6119      2.00000
      5       6.1250      0.00000
      6       6.6479      0.00000
      7       9.3398      0.00000
      8      11.4048      0.00000
      9      12.8607      0.00000
     10      13.4967      0.00000
     11      15.5485      0.00000
     12      16.5561      0.00000
     13      16.8598      0.00000
     14      18.0090      0.00000
     15      19.2272      0.00000
     16      19.8862      0.00000

 k-point   112 :      -0.4000    0.4000    0.1333
  band No.  band energies     occupation 
      1      -3.8870      2.00000
      2      -2.4551      2.00000
      3       0.8852      2.00000
      4       1.4838      2.00000
      5       6.3949      0.00000
      6       7.3129      0.00000
      7       9.1104      0.00000
      8      11.0462      0.00000
      9      12.2101      0.00000
     10      14.0828      0.00000
     11      15.0501      0.00000
     12      16.8494      0.00000
     13      17.7821      0.00000
     14      18.2710      0.00000
     15      19.7469      0.00000
     16      20.4005      0.00000

 k-point   113 :      -0.3333    0.4000    0.1333
  band No.  band energies     occupation 
      1      -3.6784      2.00000
      2      -2.6663      2.00000
      3       0.6431      2.00000
      4       1.5390      2.00000
      5       6.5426      0.00000
      6       8.3791      0.00000
      7       8.9059      0.00000
      8       9.9373      0.00000
      9      12.0151      0.00000
     10      13.6717      0.00000
     11      15.4199      0.00000
     12      17.0909      0.00000
     13      18.1181      0.00000
     14      19.1238      0.00000
     15      19.8493      0.00000
     16      20.5798      0.00000

 k-point   114 :      -0.2667    0.4000    0.1333
  band No.  band energies     occupation 
      1      -3.9024      2.00000
      2      -2.4310      2.00000
      3       0.5631      2.00000
      4       1.7180      2.00000
      5       6.7413      0.00000
      6       8.5847      0.00000
      7       8.9873      0.00000
      8       9.5963      0.00000
      9      11.5988      0.00000
     10      12.9323      0.00000
     11      16.1576      0.00000
     12      17.3798      0.00000
     13      17.6869      0.00000
     14      18.8734      0.00000
     15      19.4927      0.00000
     16      20.7639      0.00000

 k-point   115 :      -0.4000    0.4667    0.1333
  band No.  band energies     occupation 
      1      -3.5760      2.00000
      2      -2.8094      2.00000
      3       1.1515      2.00000
      4       1.2971      2.00000
      5       6.1504      0.00000
      6       6.3257      0.00000
      7      10.3049      0.00000
      8      11.2736      0.00000
      9      13.0833      0.00000
     10      13.9809      0.00000
     11      15.2119      0.00000
     12      16.1004      0.00000
     13      17.6493      0.00000
     14      18.8609      0.00000
     15      19.3704      0.00000
     16      20.3569      0.00000

 k-point   116 :      -0.3333    0.4667    0.1333
  band No.  band energies     occupation 
      1      -3.3453      2.00000
      2      -3.0146      2.00000
      3       0.8470      2.00000
      4       1.3317      2.00000
      5       6.3516      0.00000
      6       7.2165      0.00000
      7      10.0366      0.00000
      8      10.1518      0.00000
      9      12.9646      0.00000
     10      13.7191      0.00000
     11      15.4138      0.00000
     12      16.2766      0.00000
     13      18.6967      0.00000
     14      19.2061      0.00000
     15      19.6591      0.00000
     16      19.8216      0.00000

 k-point   117 :      -0.4000    0.4000    0.2000
  band No.  band energies     occupation 
      1      -4.1122      2.00000
      2      -2.1973      2.00000
      3       0.7918      2.00000
      4       1.6025      2.00000
      5       7.2726      0.00000
      6       7.6558      0.00000
      7       8.0401      0.00000
      8      10.8797      0.00000
      9      11.8072      0.00000
     10      13.2469      0.00000
     11      15.9183      0.00000
     12      17.0797      0.00000
     13      17.3420      0.00000
     14      18.3218      0.00000
     15      19.0186      0.00000
     16      21.1711      0.00000

 k-point   118 :      -0.3333    0.4000    0.2000
  band No.  band energies     occupation 
      1      -3.7691      2.00000
      2      -2.5581      2.00000
      3       0.6848      2.00000
      4       1.4278      2.00000
      5       7.5360      0.00000
      6       7.7732      0.00000
      7       8.5722      0.00000
      8       9.7339      0.00000
      9      12.0285      0.00000
     10      13.8909      0.00000
     11      15.2398      0.00000
     12      16.9935      0.00000
     13      17.9676      0.00000
     14      19.2513      0.00000
     15      19.7585      0.00000
     16      20.8600      0.00000

 k-point   119 :      -0.3333    0.4667    0.2000
  band No.  band energies     occupation 
      1      -3.4865      2.00000
      2      -2.8402      2.00000
      3       0.8660      2.00000
      4       1.1380      2.00000
      5       7.2907      0.00000
      6       7.4386      0.00000
      7       8.8696      0.00000
      8       9.8858      0.00000
      9      12.9464      0.00000
     10      13.9011      0.00000
     11      15.3197      0.00000
     12      16.2312      0.00000
     13      18.6211      0.00000
     14      19.5961      0.00000
     15      19.6406      0.00000
     16      20.5471      0.00000

 k-point   120 :      -0.2667    0.4667    0.2000
  band No.  band energies     occupation 
      1      -3.4034      2.00000
      2      -2.9118      2.00000
      3       0.7510      2.00000
      4       1.1521      2.00000
      5       7.5214      0.00000
      6       8.4894      0.00000
      7       8.6096      0.00000
      8       8.7429      0.00000
      9      12.9294      0.00000
     10      13.8060      0.00000
     11      15.3873      0.00000
     12      16.3034      0.00000
     13      18.7346      0.00000
     14      19.5445      0.00000
     15      20.4765      0.00000
     16      20.4877      0.00000


--------------------------------------------------------------------------------------------------------


 soft charge-density along one line, spin component           1
         0         1         2         3         4         5         6         7         8         9
 total charge-density along one line
 
 pseudopotential strength for first ion, spin component:           1
 18.630   0.001  -0.000  -0.000  -0.000   0.000   0.000   0.000
  0.001   0.006   0.000   0.000   0.000  -0.000  -0.000  -0.000
 -0.000   0.000   4.201  -0.000  -0.000  -0.003   0.000   0.000
 -0.000   0.000  -0.000   4.201  -0.000   0.000  -0.003   0.000
 -0.000   0.000  -0.000  -0.000   4.201   0.000   0.000  -0.003
  0.000  -0.000  -0.003   0.000   0.000   0.005  -0.000  -0.000
  0.000  -0.000   0.000  -0.003   0.000  -0.000   0.005  -0.000
  0.000  -0.000   0.000   0.000  -0.003  -0.000  -0.000   0.005
 total augmentation occupancy for first ion, spin component:           1
  1.543  -0.738   0.000  -0.000   0.000  -0.000   0.000   0.000
 -0.738   0.686  -0.000  -0.000  -0.000   0.000  -0.000  -0.000
 -0.000  -0.000   0.893  -0.000   0.000  -0.686  -0.000  -0.000
 -0.000  -0.000   0.000   0.893   0.000   0.000  -0.686   0.000
  0.000  -0.000   0.000  -0.000   0.893  -0.000  -0.000  -0.686
 -0.000   0.000  -0.686   0.000  -0.000   0.564   0.000   0.000
 -0.000  -0.000  -0.000  -0.686   0.000   0.000   0.564   0.000
  0.000  -0.000  -0.000   0.000  -0.686  -0.000   0.000   0.564


------------------------ aborting loop because EDIFF is reached ----------------------------------------


    CHARGE:  cpu time    0.0060: real time    0.0059
    FORLOC:  cpu time    0.0000: real time    0.0001
    FORNL :  cpu time    0.0080: real time    0.0080
    STRESS:  cpu time    0.0890: real time    0.0886
    FORCOR:  cpu time    0.0010: real time    0.0016
    FORHAR:  cpu time    0.0010: real time    0.0005
    MIXING:  cpu time    0.0000: real time    0.0003
    OFIELD:  cpu time    0.0000: real time    0.0000

  FORCE on cell =-STRESS in cart. coord.  units (eV):
  Direction    XX          YY          ZZ          XY          YZ          ZX
  --------------------------------------------------------------------------------------
  Alpha Z     2.76051     2.76051     2.76051
  Ewald     -71.32761   -71.32761   -71.32761    -0.00000    -0.00000    -0.00000
  Hartree     5.78248     5.78248     5.78248     0.00000     0.00000     0.00000
  E(xc)     -24.35126   -24.35126   -24.35126    -0.00002    -0.00002    -0.00002
  Local     -32.43324   -32.43324   -32.43324     0.00012     0.00012     0.00012
  n-local    76.39309    77.86642    72.25766     1.91731    -1.06538     0.37433
  augment   -11.61983   -11.61983   -11.61983    -0.00012    -0.00012    -0.00012
  Kinetic    54.56702    53.31244    49.45912     3.58850    -0.96803     1.02677
  Fock        0.00000     0.00000     0.00000     0.00000     0.00000     0.00000
  -------------------------------------------------------------------------------------
  Total      -3.23703    -3.23703    -3.23703    -0.00000    -0.00000     0.00000
  in kB    -106.32466  -106.32466  -106.32466    -0.00000    -0.00000     0.00000
  external pressure =     -106.32 kB  Pullay stress =        0.00 kB


 VOLUME and BASIS-vectors are now :
 -----------------------------------------------------------------------------
  energy-cutoff  :      170.00
  volume of cell :       48.78
      direct lattice vectors                 reciprocal lattice vectors
     0.000000000  2.900000000  2.900000000    -0.172413793  0.172413793  0.172413793
     2.900000000  0.000000000  2.900000000     0.172413793 -0.172413793  0.172413793
     2.900000000  2.900000000  0.000000000     0.172413793  0.172413793 -0.172413793

  length of vectors
     4.101219331  4.101219331  4.101219331     0.298629450  0.298629450  0.298629450


 FORCES acting on ions
    electron-ion (+dipol)            ewald-force                    non-local-force                 convergence-correction
 -----------------------------------------------------------------------------------------------
   -.443E-06 -.443E-06 -.117E-06   0.103E-13 0.934E-14 0.112E-13   0.694E-17 -.451E-16 -.101E-15   0.589E-08 0.589E-08 0.589E-08
   0.443E-06 0.443E-06 0.117E-06   -.104E-13 -.931E-14 -.113E-13   -.937E-16 0.729E-16 0.763E-16   -.589E-08 -.589E-08 -.589E-08
 -----------------------------------------------------------------------------------------------
   0.115E-12 -.437E-13 -.157E-13   -.132E-15 0.271E-16 -.909E-16   -.867E-16 0.278E-16 -.243E-16   -.107E-14 0.198E-15 0.756E-15
 
 
 POSITION                                       TOTAL-FORCE (eV/Angst)
 -----------------------------------------------------------------------------------
      5.07500      5.07500      5.07500         0.000000      0.000000      0.000000
      0.72500      0.72500      0.72500        -0.000000     -0.000000     -0.000000
 -----------------------------------------------------------------------------------
    total drift:                                0.000000     -0.000000     -0.000000


--------------------------------------------------------------------------------------------------------



  FREE ENERGIE OF THE ION-ELECTRON SYSTEM (eV)
  ---------------------------------------------------
  free  energy   TOTEN  =       -10.49417783 eV

  energy  without entropy=      -10.49417783  energy(sigma->0) =      -10.49417783
 


--------------------------------------------------------------------------------------------------------


    POTLOK:  cpu time    0.0030: real time    0.0032


--------------------------------------------------------------------------------------------------------


 writing wavefunctions
     LOOP+:  cpu time    6.5730: real time    6.7352
    4ORBIT:  cpu time    0.0000: real time    0.0000

 total amount of memory used by VASP on root node    32915. kBytes
========================================================================

   base      :      30000. kBytes
   nonl-proj :       2097. kBytes
   fftplans  :         69. kBytes
   grid      :        191. kBytes
   one-center:          6. kBytes
   wavefun   :        552. kBytes
 
  
  
 General timing and accounting informations for this job:
 ========================================================
  
                  Total CPU time used (sec):        7.226
                            User time (sec):        7.073
                          System time (sec):        0.153
                         Elapsed time (sec):        7.844
  
                   Maximum memory used (kb):       74124.
                   Average memory used (kb):           0.
  
                          Minor page faults:        13525
                          Major page faults:            0
                 Voluntary context switches:         2846
