 vasp.5.4.1 24Jun15 (build May 02 2016 14:41:14) complex                        
  
 executed on           IFC91_ompi date 2022.05.07  11:08:26
 running on   16 total cores
 distrk:  each k-point on   16 cores,    1 groups
 distr:  one band on NCORES_PER_BAND=   1 cores,   16 groups


--------------------------------------------------------------------------------------------------------


 INCAR:
 POTCAR:   PAW_PBE Si 05Jan2001                   

 ----------------------------------------------------------------------------- 
|                                                                             |
|           W    W    AA    RRRRR   N    N  II  N    N   GGGG   !!!           |
|           W    W   A  A   R    R  NN   N  II  NN   N  G    G  !!!           |
|           W    W  A    A  R    R  N N  N  II  N N  N  G       !!!           |
|           W WW W  AAAAAA  RRRRR   N  N N  II  N  N N  G  GGG   !            |
|           WW  WW  A    A  R   R   N   NN  II  N   NN  G    G                |
|           W    W  A    A  R    R  N    N  II  N    N   GGGG   !!!           |
|                                                                             |
|      For optimal performance we recommend to set                            |
|        NCORE= 4 - approx SQRT( number of cores)                             |
|      NCORE specifies how many cores store one orbital (NPAR=cpu/NCORE).     |
|      This setting can  greatly improve the performance of VASP for DFT.     |
|      The default, NPAR=number of cores might be grossly inefficient         |
|      on modern multi-core architectures or massively parallel machines.     |
|      Do your own testing !!!!                                               |
|      Unfortunately you need to use the default for GW and RPA calculations. |
|      (for HF NCORE is supported but not extensively tested yet)             |
|                                                                             |
 ----------------------------------------------------------------------------- 

 POTCAR:   PAW_PBE Si 05Jan2001                   
   VRHFIN =Si: s2p2                                                             
   LEXCH  = PE                                                                  
   EATOM  =   103.0669 eV,    7.5752 Ry                                         
                                                                                
   TITEL  = PAW_PBE Si 05Jan2001                                                
   LULTRA =        F    use ultrasoft PP ?                                      
   IUNSCR =        1    unscreen: 0-lin 1-nonlin 2-no                           
   RPACOR =    1.500    partial core radius                                     
   POMASS =   28.085; ZVAL   =    4.000    mass and valenz                      
   RCORE  =    1.900    outmost cutoff radius                                   
   RWIGS  =    2.480; RWIGS  =    1.312    wigner-seitz radius (au A)           
   ENMAX  =  245.345; ENMIN  =  184.009 eV                                      
   ICORE  =        2    local potential                                         
   LCOR   =        T    correct aug charges                                     
   LPAW   =        T    paw PP                                                  
   EAUG   =  322.069                                                            
   DEXC   =    -.007                                                            
   RMAX   =    2.944    core radius for proj-oper                               
   RAUG   =    1.300    factor for augmentation sphere                          
   RDEP   =    1.993    radius for radial grids                                 
   QCUT   =   -4.246; QGAM   =    8.493    optimization parameters              
                                                                                
   Description                                                                  
     l     E      TYP  RCUT    TYP  RCUT                                        
     0   .000     23  1.900                                                     
     0   .000     23  1.900                                                     
     1   .000     23  1.900                                                     
     1   .000     23  1.900                                                     
     2   .000      7  1.900                                                     
  local pseudopotential read in
  partial core-charges read in
  atomic valenz-charges read in
  non local Contribution for L=           0  read in
    real space projection operators read in
  non local Contribution for L=           0  read in
    real space projection operators read in
  non local Contribution for L=           1  read in
    real space projection operators read in
  non local Contribution for L=           1  read in
    real space projection operators read in
    PAW grid and wavefunctions read in
 
   number of l-projection  operators is LMAX  =           4
   number of lm-projection operators is LMMAX =           8
 
 PAW_PBE Si 05Jan2001                   :
 energy of atom  1       EATOM= -103.0669
 kinetic energy error for atom=    0.0272 (will be added to EATOM!!)
 
 
 POSCAR: Real silicon structure                  
  positions in direct lattice
  No initial velocities read in
 exchange correlation table for  LEXCH =        8
   RHO(1)=    0.500       N(1)  =     2000
   RHO(2)=  100.500       N(2)  =     4000
 


--------------------------------------------------------------------------------------------------------


 ion  position               nearest neighbor table
   1  0.875  0.875  0.875-   2 2.51   2 2.51   2 2.51   2 2.51
   2  0.125  0.125  0.125-   1 2.51   1 2.51   1 2.51   1 2.51
 
  LATTYP: Found a face centered cubic cell.
 ALAT       =     5.8000000000
  
  Lattice vectors:
  
 A1 = (   0.0000000000,   2.9000000000,   2.9000000000)
 A2 = (   2.9000000000,   0.0000000000,   2.9000000000)
 A3 = (   2.9000000000,   2.9000000000,   0.0000000000)


Analysis of symmetry for initial positions (statically):
=====================================================================
 Subroutine PRICEL returns:
 Original cell was already a primitive cell.
 

 Routine SETGRP: Setting up the symmetry group for a 
 face centered cubic supercell.


 Subroutine GETGRP returns: Found 48 space group operations
 (whereof 12 operations were pure point group operations)
 out of a pool of 48 trial point group operations.


The static configuration has the point symmetry D_3d.
 The point group associated with its full space group is O_h .


Analysis of symmetry for dynamics (positions and initial velocities):
=====================================================================
 Subroutine PRICEL returns:
 Original cell was already a primitive cell.
 

 Routine SETGRP: Setting up the symmetry group for a 
 face centered cubic supercell.


 Subroutine GETGRP returns: Found 48 space group operations
 (whereof 12 operations were pure point group operations)
 out of a pool of 48 trial point group operations.


The dynamic configuration has the point symmetry D_3d.
 The point group associated with its full space group is O_h .
 
 
 KPOINTS: k-points                                

Automatic generation of k-mesh.
Space group operators:
 irot       det(A)        alpha          n_x          n_y          n_z        tau_x        tau_y        tau_z
    1     1.000000     0.000000     1.000000     0.000000     0.000000     0.000000     0.000000     0.000000
    2    -1.000000     0.000000     1.000000     0.000000     0.000000     0.000000     0.000000     0.000000
    3     1.000000   120.000000    -0.577350    -0.577350    -0.577350     0.000000     0.000000     0.000000
    4    -1.000000   120.000000    -0.577350    -0.577350    -0.577350     0.000000     0.000000     0.000000
    5     1.000000   120.000000     0.577350     0.577350     0.577350     0.000000     0.000000     0.000000
    6    -1.000000   120.000000     0.577350     0.577350     0.577350     0.000000     0.000000     0.000000
    7     1.000000   180.000000     0.000000    -0.707107     0.707107     0.000000     0.000000     0.000000
    8    -1.000000   180.000000     0.000000    -0.707107     0.707107     0.000000     0.000000     0.000000
    9     1.000000   180.000000     0.707107    -0.707107     0.000000     0.000000     0.000000     0.000000
   10    -1.000000   180.000000     0.707107    -0.707107     0.000000     0.000000     0.000000     0.000000
   11     1.000000   180.000000     0.707107     0.000000    -0.707107     0.000000     0.000000     0.000000
   12    -1.000000   180.000000     0.707107     0.000000    -0.707107     0.000000     0.000000     0.000000
   13     1.000000    90.000000     0.000000     0.000000    -1.000000     0.500000     0.000000     0.000000
   14    -1.000000    90.000000     0.000000     0.000000    -1.000000     0.500000     0.000000     0.000000
   15     1.000000   180.000000     0.000000     0.707107     0.707107     0.500000     0.000000     0.000000
   16    -1.000000   180.000000     0.000000     0.707107     0.707107     0.500000     0.000000     0.000000
   17     1.000000    90.000000     0.000000     1.000000     0.000000     0.500000     0.000000     0.000000
   18    -1.000000    90.000000     0.000000     1.000000     0.000000     0.500000     0.000000     0.000000
   19     1.000000   180.000000     0.000000     0.000000     1.000000     0.000000     0.000000     0.500000
   20    -1.000000   180.000000     0.000000     0.000000     1.000000     0.000000     0.000000     0.500000
   21     1.000000   120.000000    -0.577350     0.577350     0.577350     0.000000     0.000000     0.500000
   22    -1.000000   120.000000    -0.577350     0.577350     0.577350     0.000000     0.000000     0.500000
   23     1.000000   120.000000    -0.577350     0.577350    -0.577350     0.000000     0.000000     0.500000
   24    -1.000000   120.000000    -0.577350     0.577350    -0.577350     0.000000     0.000000     0.500000
   25     1.000000    90.000000     0.000000     0.000000     1.000000     0.000000     0.500000     0.000000
   26    -1.000000    90.000000     0.000000     0.000000     1.000000     0.000000     0.500000     0.000000
   27     1.000000    90.000000    -1.000000     0.000000     0.000000     0.000000     0.500000     0.000000
   28    -1.000000    90.000000    -1.000000     0.000000     0.000000     0.000000     0.500000     0.000000
   29     1.000000   180.000000     0.707107     0.000000     0.707107     0.000000     0.500000     0.000000
   30    -1.000000   180.000000     0.707107     0.000000     0.707107     0.000000     0.500000     0.000000
   31     1.000000   120.000000     0.577350    -0.577350     0.577350     0.500000     0.000000     0.000000
   32    -1.000000   120.000000     0.577350    -0.577350     0.577350     0.500000     0.000000     0.000000
   33     1.000000   120.000000    -0.577350    -0.577350     0.577350     0.500000     0.000000     0.000000
   34    -1.000000   120.000000    -0.577350    -0.577350     0.577350     0.500000     0.000000     0.000000
   35     1.000000   180.000000     1.000000     0.000000     0.000000     0.500000     0.000000     0.000000
   36    -1.000000   180.000000     1.000000     0.000000     0.000000     0.500000     0.000000     0.000000
   37     1.000000    90.000000     0.000000    -1.000000     0.000000     0.000000     0.000000     0.500000
   38    -1.000000    90.000000     0.000000    -1.000000     0.000000     0.000000     0.000000     0.500000
   39     1.000000   180.000000     0.707107     0.707107     0.000000     0.000000     0.000000     0.500000
   40    -1.000000   180.000000     0.707107     0.707107     0.000000     0.000000     0.000000     0.500000
   41     1.000000    90.000000     1.000000     0.000000     0.000000     0.000000     0.000000     0.500000
   42    -1.000000    90.000000     1.000000     0.000000     0.000000     0.000000     0.000000     0.500000
   43     1.000000   120.000000     0.577350    -0.577350    -0.577350     0.000000     0.500000     0.000000
   44    -1.000000   120.000000     0.577350    -0.577350    -0.577350     0.000000     0.500000     0.000000
   45     1.000000   180.000000     0.000000     1.000000     0.000000     0.000000     0.500000     0.000000
   46    -1.000000   180.000000     0.000000     1.000000     0.000000     0.000000     0.500000     0.000000
   47     1.000000   120.000000     0.577350     0.577350    -0.577350     0.000000     0.500000     0.000000
   48    -1.000000   120.000000     0.577350     0.577350    -0.577350     0.000000     0.500000     0.000000
 
 Subroutine IBZKPT returns following result:
 ===========================================
 
 Found    120 irreducible k-points:
 
 Following reciprocal coordinates:
            Coordinates               Weight
  0.000000  0.000000  0.000000      1.000000
  0.066667  0.000000  0.000000      8.000000
  0.133333  0.000000  0.000000      8.000000
  0.200000  0.000000  0.000000      8.000000
  0.266667  0.000000  0.000000      8.000000
  0.333333  0.000000  0.000000      8.000000
  0.400000  0.000000  0.000000      8.000000
  0.466667  0.000000  0.000000      8.000000
  0.066667  0.066667  0.000000      6.000000
  0.133333  0.066667  0.000000     24.000000
  0.200000  0.066667  0.000000     24.000000
  0.266667  0.066667  0.000000     24.000000
  0.333333  0.066667  0.000000     24.000000
  0.400000  0.066667  0.000000     24.000000
  0.466667  0.066667  0.000000     24.000000
 -0.466667  0.066667  0.000000     24.000000
 -0.400000  0.066667  0.000000     24.000000
 -0.333333  0.066667  0.000000     24.000000
 -0.266667  0.066667  0.000000     24.000000
 -0.200000  0.066667  0.000000     24.000000
 -0.133333  0.066667  0.000000     24.000000
 -0.066667  0.066667  0.000000     12.000000
  0.133333  0.133333  0.000000      6.000000
  0.200000  0.133333  0.000000     24.000000
  0.266667  0.133333  0.000000     24.000000
  0.333333  0.133333  0.000000     24.000000
  0.400000  0.133333  0.000000     24.000000
  0.466667  0.133333  0.000000     24.000000
 -0.466667  0.133333  0.000000     24.000000
 -0.400000  0.133333  0.000000     24.000000
 -0.333333  0.133333  0.000000     24.000000
 -0.266667  0.133333  0.000000     24.000000
 -0.200000  0.133333  0.000000     24.000000
 -0.133333  0.133333  0.000000     12.000000
  0.200000  0.200000  0.000000      6.000000
  0.266667  0.200000  0.000000     24.000000
  0.333333  0.200000  0.000000     24.000000
  0.400000  0.200000  0.000000     24.000000
  0.466667  0.200000  0.000000     24.000000
 -0.466667  0.200000  0.000000     24.000000
 -0.400000  0.200000  0.000000     24.000000
 -0.333333  0.200000  0.000000     24.000000
 -0.266667  0.200000  0.000000     24.000000
 -0.200000  0.200000  0.000000     12.000000
  0.266667  0.266667  0.000000      6.000000
  0.333333  0.266667  0.000000     24.000000
  0.400000  0.266667  0.000000     24.000000
  0.466667  0.266667  0.000000     24.000000
 -0.466667  0.266667  0.000000     24.000000
 -0.400000  0.266667  0.000000     24.000000
 -0.333333  0.266667  0.000000     24.000000
 -0.266667  0.266667  0.000000     12.000000
  0.333333  0.333333  0.000000      6.000000
  0.400000  0.333333  0.000000     24.000000
  0.466667  0.333333  0.000000     24.000000
 -0.466667  0.333333  0.000000     24.000000
 -0.400000  0.333333  0.000000     24.000000
 -0.333333  0.333333  0.000000     12.000000
  0.400000  0.400000  0.000000      6.000000
  0.466667  0.400000  0.000000     24.000000
 -0.466667  0.400000  0.000000     24.000000
 -0.400000  0.400000  0.000000     12.000000
  0.466667  0.466667  0.000000      6.000000
 -0.466667  0.466667  0.000000     12.000000
  0.200000  0.133333  0.066667     24.000000
  0.266667  0.133333  0.066667     48.000000
  0.333333  0.133333  0.066667     48.000000
  0.400000  0.133333  0.066667     48.000000
  0.466667  0.133333  0.066667     48.000000
 -0.466667  0.133333  0.066667     48.000000
  0.266667  0.200000  0.066667     24.000000
  0.333333  0.200000  0.066667     48.000000
  0.400000  0.200000  0.066667     48.000000
  0.466667  0.200000  0.066667     48.000000
 -0.466667  0.200000  0.066667     48.000000
 -0.400000  0.200000  0.066667     48.000000
 -0.333333  0.200000  0.066667     48.000000
 -0.266667  0.200000  0.066667     48.000000
 -0.200000  0.200000  0.066667     48.000000
 -0.133333  0.200000  0.066667     24.000000
  0.333333  0.266667  0.066667     24.000000
  0.400000  0.266667  0.066667     48.000000
  0.466667  0.266667  0.066667     48.000000
 -0.466667  0.266667  0.066667     48.000000
 -0.400000  0.266667  0.066667     48.000000
 -0.333333  0.266667  0.066667     48.000000
 -0.266667  0.266667  0.066667     48.000000
 -0.200000  0.266667  0.066667     24.000000
  0.400000  0.333333  0.066667     24.000000
  0.466667  0.333333  0.066667     48.000000
 -0.466667  0.333333  0.066667     48.000000
 -0.400000  0.333333  0.066667     48.000000
 -0.333333  0.333333  0.066667     48.000000
 -0.266667  0.333333  0.066667     24.000000
  0.466667  0.400000  0.066667     24.000000
 -0.466667  0.400000  0.066667     48.000000
 -0.400000  0.400000  0.066667     48.000000
 -0.333333  0.400000  0.066667     24.000000
 -0.466667  0.466667  0.066667     24.000000
 -0.400000  0.466667  0.066667     24.000000
  0.400000  0.266667  0.133333     24.000000
  0.466667  0.266667  0.133333     48.000000
 -0.466667  0.266667  0.133333     48.000000
 -0.400000  0.266667  0.133333     48.000000
  0.466667  0.333333  0.133333     24.000000
 -0.466667  0.333333  0.133333     48.000000
 -0.400000  0.333333  0.133333     48.000000
 -0.333333  0.333333  0.133333     48.000000
 -0.266667  0.333333  0.133333     48.000000
 -0.200000  0.333333  0.133333     24.000000
 -0.466667  0.400000  0.133333     24.000000
 -0.400000  0.400000  0.133333     48.000000
 -0.333333  0.400000  0.133333     48.000000
 -0.266667  0.400000  0.133333     24.000000
 -0.400000  0.466667  0.133333     24.000000
 -0.333333  0.466667  0.133333     24.000000
 -0.400000  0.400000  0.200000     24.000000
 -0.333333  0.400000  0.200000     48.000000
 -0.333333  0.466667  0.200000     24.000000
 -0.266667  0.466667  0.200000     24.000000
 
 Following cartesian coordinates:
            Coordinates               Weight
  0.000000  0.000000  0.000000      1.000000
 -0.066667  0.066667  0.066667      8.000000
 -0.133333  0.133333  0.133333      8.000000
 -0.200000  0.200000  0.200000      8.000000
 -0.266667  0.266667  0.266667      8.000000
 -0.333333  0.333333  0.333333      8.000000
 -0.400000  0.400000  0.400000      8.000000
 -0.466667  0.466667  0.466667      8.000000
  0.000000  0.000000  0.133333      6.000000
 -0.066667  0.066667  0.200000     24.000000
 -0.133333  0.133333  0.266667     24.000000
 -0.200000  0.200000  0.333333     24.000000
 -0.266667  0.266667  0.400000     24.000000
 -0.333333  0.333333  0.466667     24.000000
 -0.400000  0.400000  0.533333     24.000000
  0.533333 -0.533333 -0.400000     24.000000
  0.466667 -0.466667 -0.333333     24.000000
  0.400000 -0.400000 -0.266667     24.000000
  0.333333 -0.333333 -0.200000     24.000000
  0.266667 -0.266667 -0.133333     24.000000
  0.200000 -0.200000 -0.066667     24.000000
  0.133333 -0.133333  0.000000     12.000000
  0.000000  0.000000  0.266667      6.000000
 -0.066667  0.066667  0.333333     24.000000
 -0.133333  0.133333  0.400000     24.000000
 -0.200000  0.200000  0.466667     24.000000
 -0.266667  0.266667  0.533333     24.000000
 -0.333333  0.333333  0.600000     24.000000
  0.600000 -0.600000 -0.333333     24.000000
  0.533333 -0.533333 -0.266667     24.000000
  0.466667 -0.466667 -0.200000     24.000000
  0.400000 -0.400000 -0.133333     24.000000
  0.333333 -0.333333 -0.066667     24.000000
  0.266667 -0.266667  0.000000     12.000000
  0.000000  0.000000  0.400000      6.000000
 -0.066667  0.066667  0.466667     24.000000
 -0.133333  0.133333  0.533333     24.000000
 -0.200000  0.200000  0.600000     24.000000
 -0.266667  0.266667  0.666667     24.000000
  0.666667 -0.666667 -0.266667     24.000000
  0.600000 -0.600000 -0.200000     24.000000
  0.533333 -0.533333 -0.133333     24.000000
  0.466667 -0.466667 -0.066667     24.000000
  0.400000 -0.400000  0.000000     12.000000
  0.000000  0.000000  0.533333      6.000000
 -0.066667  0.066667  0.600000     24.000000
 -0.133333  0.133333  0.666667     24.000000
 -0.200000  0.200000  0.733333     24.000000
  0.733333 -0.733333 -0.200000     24.000000
  0.666667 -0.666667 -0.133333     24.000000
  0.600000 -0.600000 -0.066667     24.000000
  0.533333 -0.533333  0.000000     12.000000
  0.000000  0.000000  0.666667      6.000000
 -0.066667  0.066667  0.733333     24.000000
 -0.133333  0.133333  0.800000     24.000000
  0.800000 -0.800000 -0.133333     24.000000
  0.733333 -0.733333 -0.066667     24.000000
  0.666667 -0.666667  0.000000     12.000000
  0.000000  0.000000  0.800000      6.000000
 -0.066667  0.066667  0.866667     24.000000
  0.866667 -0.866667 -0.066667     24.000000
  0.800000 -0.800000  0.000000     12.000000
  0.000000  0.000000  0.933333      6.000000
  0.933333 -0.933333  0.000000     12.000000
  0.000000  0.133333  0.266667     24.000000
 -0.066667  0.200000  0.333333     48.000000
 -0.133333  0.266667  0.400000     48.000000
 -0.200000  0.333333  0.466667     48.000000
 -0.266667  0.400000  0.533333     48.000000
  0.666667 -0.533333 -0.400000     48.000000
  0.000000  0.133333  0.400000     24.000000
 -0.066667  0.200000  0.466667     48.000000
 -0.133333  0.266667  0.533333     48.000000
 -0.200000  0.333333  0.600000     48.000000
  0.733333 -0.600000 -0.333333     48.000000
  0.666667 -0.533333 -0.266667     48.000000
  0.600000 -0.466667 -0.200000     48.000000
  0.533333 -0.400000 -0.133333     48.000000
  0.466667 -0.333333 -0.066667     48.000000
  0.400000 -0.266667  0.000000     24.000000
  0.000000  0.133333  0.533333     24.000000
 -0.066667  0.200000  0.600000     48.000000
 -0.133333  0.266667  0.666667     48.000000
  0.800000 -0.666667 -0.266667     48.000000
  0.733333 -0.600000 -0.200000     48.000000
  0.666667 -0.533333 -0.133333     48.000000
  0.600000 -0.466667 -0.066667     48.000000
  0.533333 -0.400000 -0.000000     24.000000
 -0.000000  0.133333  0.666667     24.000000
 -0.066667  0.200000  0.733333     48.000000
  0.866667 -0.733333 -0.200000     48.000000
  0.800000 -0.666667 -0.133333     48.000000
  0.733333 -0.600000 -0.066667     48.000000
  0.666667 -0.533333 -0.000000     24.000000
  0.000000  0.133333  0.800000     24.000000
  0.933333 -0.800000 -0.133333     48.000000
  0.866667 -0.733333 -0.066667     48.000000
  0.800000 -0.666667  0.000000     24.000000
  1.000000 -0.866667 -0.066667     24.000000
  0.933333 -0.800000 -0.000000     24.000000
 -0.000000  0.266667  0.533333     24.000000
 -0.066667  0.333333  0.600000     48.000000
  0.866667 -0.600000 -0.333333     48.000000
  0.800000 -0.533333 -0.266667     48.000000
 -0.000000  0.266667  0.666667     24.000000
  0.933333 -0.666667 -0.266667     48.000000
  0.866667 -0.600000 -0.200000     48.000000
  0.800000 -0.533333 -0.133333     48.000000
  0.733333 -0.466667 -0.066667     48.000000
  0.666667 -0.400000 -0.000000     24.000000
  1.000000 -0.733333 -0.200000     24.000000
  0.933333 -0.666667 -0.133333     48.000000
  0.866667 -0.600000 -0.066667     48.000000
  0.800000 -0.533333  0.000000     24.000000
  1.000000 -0.733333 -0.066667     24.000000
  0.933333 -0.666667  0.000000     24.000000
  1.000000 -0.600000 -0.200000     24.000000
  0.933333 -0.533333 -0.133333     48.000000
  1.000000 -0.600000 -0.066667     24.000000
  0.933333 -0.533333  0.000000     24.000000
 


--------------------------------------------------------------------------------------------------------




 Dimension of arrays:
   k-points           NKPTS =    120   k-points in BZ     NKDIM =    120   number of bands    NBANDS=     16
   number of dos      NEDOS =    301   number of ions     NIONS =      2
   non local maximal  LDIM  =      4   non local SUM 2l+1 LMDIM =      8
   total plane-waves  NPLWV =   1728
   max r-space proj   IRMAX =      1   max aug-charges    IRDMAX=   1384
   dimension x,y,z NGX =    12 NGY =   12 NGZ =   12
   dimension x,y,z NGXF=    24 NGYF=   24 NGZF=   24
   support grid    NGXF=    24 NGYF=   24 NGZF=   24
   ions per type =               2
 NGX,Y,Z   is equivalent  to a cutoff of   4.86,  4.86,  4.86 a.u.
 NGXF,Y,Z  is equivalent  to a cutoff of   9.73,  9.73,  9.73 a.u.


 I would recommend the setting:
   dimension x,y,z NGX =    12 NGY =   12 NGZ =   12
 SYSTEM =  Silicon                                 
 POSCAR =  Real silicon structure                  

 Startparameter for this run:
   NWRITE =      2    write-flag & timer
   PREC   = normal    normal or accurate (medium, high low for compatibility)
   ISTART =      0    job   : 0-new  1-cont  2-samecut
   ICHARG =      2    charge: 1-file 2-atom 10-const
   ISPIN  =      1    spin polarized calculation?
   LNONCOLLINEAR =      F non collinear calculations
   LSORBIT =      F    spin-orbit coupling
   INIWAV =      1    electr: 0-lowe 1-rand  2-diag
   LASPH  =      F    aspherical Exc in radial PAW
   METAGGA=      F    non-selfconsistent MetaGGA calc.

 Electronic Relaxation 1
   ENCUT  =  140.0 eV  10.29 Ry    3.21 a.u.   3.96  3.96  3.96*2*pi/ulx,y,z
   ENINI  =  140.0     initial cutoff
   ENAUG  =  322.1 eV  augmentation charge cutoff
   NELM   =    100;   NELMIN=  4; NELMDL= -5     # of ELM steps 
   EDIFF  = 0.1E-05   stopping-criterion for ELM
   LREAL  =      F    real-space projection
   NLSPLINE    = F    spline interpolate recip. space projectors
   LCOMPAT=      F    compatible to vasp.4.4
   GGA_COMPAT  = T    GGA compatible to vasp.4.4-vasp.4.6
   LMAXPAW     = -100 max onsite density
   LMAXMIX     =    2 max onsite mixed and CHGCAR
   VOSKOWN=      0    Vosko Wilk Nusair interpolation
   ROPT   =    0.00000
 Ionic relaxation
   EDIFFG = 0.1E-04   stopping-criterion for IOM
   NSW    =      0    number of steps for IOM
   NBLOCK =      1;   KBLOCK =      1    inner block; outer block 
   IBRION =     -1    ionic relax: 0-MD 1-quasi-New 2-CG
   NFREE  =      0    steps in history (QN), initial steepest desc. (CG)
   ISIF   =      2    stress and relaxation
   IWAVPR =     10    prediction:  0-non 1-charg 2-wave 3-comb
   ISYM   =      2    0-nonsym 1-usesym 2-fastsym
   LCORR  =      T    Harris-Foulkes like correction to forces

   POTIM  = 0.5000    time-step for ionic-motion
   TEIN   =    0.0    initial temperature
   TEBEG  =    0.0;   TEEND  =   0.0 temperature during run
   SMASS  =  -3.00    Nose mass-parameter (am)
   estimated Nose-frequenzy (Omega)   =  0.10E-29 period in steps =****** mass=  -0.384E-27a.u.
   SCALEE = 1.0000    scale energy and forces
   NPACO  =    256;   APACO  = 16.0  distance and # of slots for P.C.
   PSTRESS=    0.0 pullay stress

  Mass of Ions in am
   POMASS =  28.09
  Ionic Valenz
   ZVAL   =   4.00
  Atomic Wigner-Seitz radii
   RWIGS  =  -1.00
  virtual crystal weights 
   VCA    =   1.00
   NELECT =       8.0000    total number of electrons
   NUPDOWN=      -1.0000    fix difference up-down

 DOS related values:
   EMIN   =  10.00;   EMAX   =-10.00  energy-range for DOS
   EFERMI =   0.00
   ISMEAR =     0;   SIGMA  =   0.10  broadening in eV -4-tet -1-fermi 0-gaus

 Electronic relaxation 2 (details)
   IALGO  =     38    algorithm
   LDIAG  =      T    sub-space diagonalisation (order eigenvalues)
   LSUBROT=      F    optimize rotation matrix (better conditioning)
   TURBO    =      0    0=normal 1=particle mesh
   IRESTART =      0    0=no restart 2=restart with 2 vectors
   NREBOOT  =      0    no. of reboots
   NMIN     =      0    reboot dimension
   EREF     =   0.00    reference energy to select bands
   IMIX   =      4    mixing-type and parameters
     AMIX     =   0.40;   BMIX     =  1.00
     AMIX_MAG =   1.60;   BMIX_MAG =  1.00
     AMIN     =   0.10
     WC   =   100.;   INIMIX=   1;  MIXPRE=   1;  MAXMIX= -45

 Intra band minimization:
   WEIMIN = 0.0000     energy-eigenvalue tresh-hold
   EBREAK =  0.16E-07  absolut break condition
   DEPER  =   0.30     relativ break condition  

   TIME   =   0.40     timestep for ELM

  volume/ion in A,a.u.               =      24.39       164.59
  Fermi-wavevector in a.u.,A,eV,Ry     =   0.896114  1.693411 10.925766  0.803021
  Thomas-Fermi vector in A             =   2.018532
 
 Write flags
   LWAVE  =      T    write WAVECAR
   LCHARG =      T    write CHGCAR
   LVTOT  =      F    write LOCPOT, total local potential
   LVHAR  =      F    write LOCPOT, Hartree potential only
   LELF   =      F    write electronic localiz. function (ELF)
   LORBIT =      0    0 simple, 1 ext, 2 COOP (PROOUT)


 Dipole corrections
   LMONO  =      F    monopole corrections only (constant potential shift)
   LDIPOL =      F    correct potential (dipole corrections)
   IDIPOL =      0    1-x, 2-y, 3-z, 4-all directions 
   EPSILON=  1.0000000 bulk dielectric constant

 Exchange correlation treatment:
   GGA     =    --    GGA type
   LEXCH   =     8    internal setting for exchange type
   VOSKOWN=      0    Vosko Wilk Nusair interpolation
   LHFCALC =     F    Hartree Fock is set to
   LHFONE  =     F    Hartree Fock one center treatment
   AEXX    =    0.0000 exact exchange contribution

 Linear response parameters
   LEPSILON=     F    determine dielectric tensor
   LRPA    =     F    only Hartree local field effects (RPA)
   LNABLA  =     F    use nabla operator in PAW spheres
   LVEL    =     F    velocity operator in full k-point grid
   LINTERFAST=   F  fast interpolation
   KINTER  =     0    interpolate to denser k-point grid
   CSHIFT  =0.1000    complex shift for real part using Kramers Kronig
   OMEGAMAX=  -1.0    maximum frequency
   DEG_THRESHOLD= 0.2000000E-02 threshold for treating states as degnerate
   RTIME   =    0.100 relaxation time in fs

 Orbital magnetization related:
   ORBITALMAG=     F  switch on orbital magnetization
   LCHIMAG   =     F  perturbation theory with respect to B field
   DQ        =  0.001000  dq finite difference perturbation B field



--------------------------------------------------------------------------------------------------------


 Static calculation
 charge density and potential will be updated during run
 non-spin polarized calculation
 Variant of blocked Davidson
 Davidson routine will perform the subspace rotation
 perform sub-space diagonalisation
    after iterative eigenvector-optimisation
 modified Broyden-mixing scheme, WC =      100.0
 initial mixing is a Kerker type mixing with AMIX =  0.4000 and BMIX =      1.0000
 Hartree-type preconditioning will be used
 using additional bands           12
 reciprocal scheme for non local part
 use partial core corrections
 calculate Harris-corrections to forces 
   (improved forces if not selfconsistent)
 use gradient corrections 
 use of overlap-Matrix (Vanderbilt PP)
 Gauss-broadening in eV      SIGMA  =   0.10


--------------------------------------------------------------------------------------------------------


  energy-cutoff  :      140.00
  volume of cell :       48.78
      direct lattice vectors                 reciprocal lattice vectors
     0.000000000  2.900000000  2.900000000    -0.172413793  0.172413793  0.172413793
     2.900000000  0.000000000  2.900000000     0.172413793 -0.172413793  0.172413793
     2.900000000  2.900000000  0.000000000     0.172413793  0.172413793 -0.172413793

  length of vectors
     4.101219331  4.101219331  4.101219331     0.298629450  0.298629450  0.298629450


 
 k-points in units of 2pi/SCALE and weight: k-points                                
   0.00000000  0.00000000  0.00000000       0.000
  -0.06666667  0.06666667  0.06666667       0.002
  -0.13333333  0.13333333  0.13333333       0.002
  -0.20000000  0.20000000  0.20000000       0.002
  -0.26666667  0.26666667  0.26666667       0.002
  -0.33333333  0.33333333  0.33333333       0.002
  -0.40000000  0.40000000  0.40000000       0.002
  -0.46666667  0.46666667  0.46666667       0.002
   0.00000000  0.00000000  0.13333333       0.002
  -0.06666667  0.06666667  0.20000000       0.007
  -0.13333333  0.13333333  0.26666667       0.007
  -0.20000000  0.20000000  0.33333333       0.007
  -0.26666667  0.26666667  0.40000000       0.007
  -0.33333333  0.33333333  0.46666667       0.007
  -0.40000000  0.40000000  0.53333333       0.007
   0.53333333 -0.53333333 -0.40000000       0.007
   0.46666667 -0.46666667 -0.33333333       0.007
   0.40000000 -0.40000000 -0.26666667       0.007
   0.33333333 -0.33333333 -0.20000000       0.007
   0.26666667 -0.26666667 -0.13333333       0.007
   0.20000000 -0.20000000 -0.06666667       0.007
   0.13333333 -0.13333333  0.00000000       0.004
   0.00000000  0.00000000  0.26666667       0.002
  -0.06666667  0.06666667  0.33333333       0.007
  -0.13333333  0.13333333  0.40000000       0.007
  -0.20000000  0.20000000  0.46666667       0.007
  -0.26666667  0.26666667  0.53333333       0.007
  -0.33333333  0.33333333  0.60000000       0.007
   0.60000000 -0.60000000 -0.33333333       0.007
   0.53333333 -0.53333333 -0.26666667       0.007
   0.46666667 -0.46666667 -0.20000000       0.007
   0.40000000 -0.40000000 -0.13333333       0.007
   0.33333333 -0.33333333 -0.06666667       0.007
   0.26666667 -0.26666667  0.00000000       0.004
   0.00000000  0.00000000  0.40000000       0.002
  -0.06666667  0.06666667  0.46666667       0.007
  -0.13333333  0.13333333  0.53333333       0.007
  -0.20000000  0.20000000  0.60000000       0.007
  -0.26666667  0.26666667  0.66666667       0.007
   0.66666667 -0.66666667 -0.26666667       0.007
   0.60000000 -0.60000000 -0.20000000       0.007
   0.53333333 -0.53333333 -0.13333333       0.007
   0.46666667 -0.46666667 -0.06666667       0.007
   0.40000000 -0.40000000  0.00000000       0.004
   0.00000000  0.00000000  0.53333333       0.002
  -0.06666667  0.06666667  0.60000000       0.007
  -0.13333333  0.13333333  0.66666667       0.007
  -0.20000000  0.20000000  0.73333333       0.007
   0.73333333 -0.73333333 -0.20000000       0.007
   0.66666667 -0.66666667 -0.13333333       0.007
   0.60000000 -0.60000000 -0.06666667       0.007
   0.53333333 -0.53333333  0.00000000       0.004
   0.00000000  0.00000000  0.66666667       0.002
  -0.06666667  0.06666667  0.73333333       0.007
  -0.13333333  0.13333333  0.80000000       0.007
   0.80000000 -0.80000000 -0.13333333       0.007
   0.73333333 -0.73333333 -0.06666667       0.007
   0.66666667 -0.66666667  0.00000000       0.004
   0.00000000  0.00000000  0.80000000       0.002
  -0.06666667  0.06666667  0.86666667       0.007
   0.86666667 -0.86666667 -0.06666667       0.007
   0.80000000 -0.80000000  0.00000000       0.004
   0.00000000  0.00000000  0.93333333       0.002
   0.93333333 -0.93333333  0.00000000       0.004
   0.00000000  0.13333333  0.26666667       0.007
  -0.06666667  0.20000000  0.33333333       0.014
  -0.13333333  0.26666667  0.40000000       0.014
  -0.20000000  0.33333333  0.46666667       0.014
  -0.26666667  0.40000000  0.53333333       0.014
   0.66666667 -0.53333333 -0.40000000       0.014
   0.00000000  0.13333333  0.40000000       0.007
  -0.06666667  0.20000000  0.46666667       0.014
  -0.13333333  0.26666667  0.53333333       0.014
  -0.20000000  0.33333333  0.60000000       0.014
   0.73333333 -0.60000000 -0.33333333       0.014
   0.66666667 -0.53333333 -0.26666667       0.014
   0.60000000 -0.46666667 -0.20000000       0.014
   0.53333333 -0.40000000 -0.13333333       0.014
   0.46666667 -0.33333333 -0.06666667       0.014
   0.40000000 -0.26666667  0.00000000       0.007
   0.00000000  0.13333333  0.53333333       0.007
  -0.06666667  0.20000000  0.60000000       0.014
  -0.13333333  0.26666667  0.66666667       0.014
   0.80000000 -0.66666667 -0.26666667       0.014
   0.73333333 -0.60000000 -0.20000000       0.014
   0.66666667 -0.53333333 -0.13333333       0.014
   0.60000000 -0.46666667 -0.06666667       0.014
   0.53333333 -0.40000000 -0.00000000       0.007
  -0.00000000  0.13333333  0.66666667       0.007
  -0.06666667  0.20000000  0.73333333       0.014
   0.86666667 -0.73333333 -0.20000000       0.014
   0.80000000 -0.66666667 -0.13333333       0.014
   0.73333333 -0.60000000 -0.06666667       0.014
   0.66666667 -0.53333333 -0.00000000       0.007
   0.00000000  0.13333333  0.80000000       0.007
   0.93333333 -0.80000000 -0.13333333       0.014
   0.86666667 -0.73333333 -0.06666667       0.014
   0.80000000 -0.66666667  0.00000000       0.007
   1.00000000 -0.86666667 -0.06666667       0.007
   0.93333333 -0.80000000 -0.00000000       0.007
  -0.00000000  0.26666667  0.53333333       0.007
  -0.06666667  0.33333333  0.60000000       0.014
   0.86666667 -0.60000000 -0.33333333       0.014
   0.80000000 -0.53333333 -0.26666667       0.014
  -0.00000000  0.26666667  0.66666667       0.007
   0.93333333 -0.66666667 -0.26666667       0.014
   0.86666667 -0.60000000 -0.20000000       0.014
   0.80000000 -0.53333333 -0.13333333       0.014
   0.73333333 -0.46666667 -0.06666667       0.014
   0.66666667 -0.40000000 -0.00000000       0.007
   1.00000000 -0.73333333 -0.20000000       0.007
   0.93333333 -0.66666667 -0.13333333       0.014
   0.86666667 -0.60000000 -0.06666667       0.014
   0.80000000 -0.53333333  0.00000000       0.007
   1.00000000 -0.73333333 -0.06666667       0.007
   0.93333333 -0.66666667  0.00000000       0.007
   1.00000000 -0.60000000 -0.20000000       0.007
   0.93333333 -0.53333333 -0.13333333       0.014
   1.00000000 -0.60000000 -0.06666667       0.007
   0.93333333 -0.53333333  0.00000000       0.007
 
 k-points in reciprocal lattice and weights: k-points                                
   0.00000000  0.00000000  0.00000000       0.000
   0.06666667  0.00000000  0.00000000       0.002
   0.13333333  0.00000000  0.00000000       0.002
   0.20000000  0.00000000  0.00000000       0.002
   0.26666667  0.00000000  0.00000000       0.002
   0.33333333  0.00000000  0.00000000       0.002
   0.40000000  0.00000000  0.00000000       0.002
   0.46666667  0.00000000  0.00000000       0.002
   0.06666667  0.06666667  0.00000000       0.002
   0.13333333  0.06666667  0.00000000       0.007
   0.20000000  0.06666667  0.00000000       0.007
   0.26666667  0.06666667  0.00000000       0.007
   0.33333333  0.06666667  0.00000000       0.007
   0.40000000  0.06666667  0.00000000       0.007
   0.46666667  0.06666667  0.00000000       0.007
  -0.46666667  0.06666667  0.00000000       0.007
  -0.40000000  0.06666667  0.00000000       0.007
  -0.33333333  0.06666667  0.00000000       0.007
  -0.26666667  0.06666667  0.00000000       0.007
  -0.20000000  0.06666667  0.00000000       0.007
  -0.13333333  0.06666667  0.00000000       0.007
  -0.06666667  0.06666667  0.00000000       0.004
   0.13333333  0.13333333  0.00000000       0.002
   0.20000000  0.13333333  0.00000000       0.007
   0.26666667  0.13333333  0.00000000       0.007
   0.33333333  0.13333333  0.00000000       0.007
   0.40000000  0.13333333  0.00000000       0.007
   0.46666667  0.13333333  0.00000000       0.007
  -0.46666667  0.13333333  0.00000000       0.007
  -0.40000000  0.13333333  0.00000000       0.007
  -0.33333333  0.13333333  0.00000000       0.007
  -0.26666667  0.13333333  0.00000000       0.007
  -0.20000000  0.13333333  0.00000000       0.007
  -0.13333333  0.13333333  0.00000000       0.004
   0.20000000  0.20000000  0.00000000       0.002
   0.26666667  0.20000000  0.00000000       0.007
   0.33333333  0.20000000  0.00000000       0.007
   0.40000000  0.20000000  0.00000000       0.007
   0.46666667  0.20000000  0.00000000       0.007
  -0.46666667  0.20000000  0.00000000       0.007
  -0.40000000  0.20000000  0.00000000       0.007
  -0.33333333  0.20000000  0.00000000       0.007
  -0.26666667  0.20000000  0.00000000       0.007
  -0.20000000  0.20000000  0.00000000       0.004
   0.26666667  0.26666667  0.00000000       0.002
   0.33333333  0.26666667  0.00000000       0.007
   0.40000000  0.26666667  0.00000000       0.007
   0.46666667  0.26666667  0.00000000       0.007
  -0.46666667  0.26666667  0.00000000       0.007
  -0.40000000  0.26666667  0.00000000       0.007
  -0.33333333  0.26666667  0.00000000       0.007
  -0.26666667  0.26666667  0.00000000       0.004
   0.33333333  0.33333333  0.00000000       0.002
   0.40000000  0.33333333  0.00000000       0.007
   0.46666667  0.33333333  0.00000000       0.007
  -0.46666667  0.33333333  0.00000000       0.007
  -0.40000000  0.33333333  0.00000000       0.007
  -0.33333333  0.33333333  0.00000000       0.004
   0.40000000  0.40000000  0.00000000       0.002
   0.46666667  0.40000000  0.00000000       0.007
  -0.46666667  0.40000000  0.00000000       0.007
  -0.40000000  0.40000000  0.00000000       0.004
   0.46666667  0.46666667  0.00000000       0.002
  -0.46666667  0.46666667  0.00000000       0.004
   0.20000000  0.13333333  0.06666667       0.007
   0.26666667  0.13333333  0.06666667       0.014
   0.33333333  0.13333333  0.06666667       0.014
   0.40000000  0.13333333  0.06666667       0.014
   0.46666667  0.13333333  0.06666667       0.014
  -0.46666667  0.13333333  0.06666667       0.014
   0.26666667  0.20000000  0.06666667       0.007
   0.33333333  0.20000000  0.06666667       0.014
   0.40000000  0.20000000  0.06666667       0.014
   0.46666667  0.20000000  0.06666667       0.014
  -0.46666667  0.20000000  0.06666667       0.014
  -0.40000000  0.20000000  0.06666667       0.014
  -0.33333333  0.20000000  0.06666667       0.014
  -0.26666667  0.20000000  0.06666667       0.014
  -0.20000000  0.20000000  0.06666667       0.014
  -0.13333333  0.20000000  0.06666667       0.007
   0.33333333  0.26666667  0.06666667       0.007
   0.40000000  0.26666667  0.06666667       0.014
   0.46666667  0.26666667  0.06666667       0.014
  -0.46666667  0.26666667  0.06666667       0.014
  -0.40000000  0.26666667  0.06666667       0.014
  -0.33333333  0.26666667  0.06666667       0.014
  -0.26666667  0.26666667  0.06666667       0.014
  -0.20000000  0.26666667  0.06666667       0.007
   0.40000000  0.33333333  0.06666667       0.007
   0.46666667  0.33333333  0.06666667       0.014
  -0.46666667  0.33333333  0.06666667       0.014
  -0.40000000  0.33333333  0.06666667       0.014
  -0.33333333  0.33333333  0.06666667       0.014
  -0.26666667  0.33333333  0.06666667       0.007
   0.46666667  0.40000000  0.06666667       0.007
  -0.46666667  0.40000000  0.06666667       0.014
  -0.40000000  0.40000000  0.06666667       0.014
  -0.33333333  0.40000000  0.06666667       0.007
  -0.46666667  0.46666667  0.06666667       0.007
  -0.40000000  0.46666667  0.06666667       0.007
   0.40000000  0.26666667  0.13333333       0.007
   0.46666667  0.26666667  0.13333333       0.014
  -0.46666667  0.26666667  0.13333333       0.014
  -0.40000000  0.26666667  0.13333333       0.014
   0.46666667  0.33333333  0.13333333       0.007
  -0.46666667  0.33333333  0.13333333       0.014
  -0.40000000  0.33333333  0.13333333       0.014
  -0.33333333  0.33333333  0.13333333       0.014
  -0.26666667  0.33333333  0.13333333       0.014
  -0.20000000  0.33333333  0.13333333       0.007
  -0.46666667  0.40000000  0.13333333       0.007
  -0.40000000  0.40000000  0.13333333       0.014
  -0.33333333  0.40000000  0.13333333       0.014
  -0.26666667  0.40000000  0.13333333       0.007
  -0.40000000  0.46666667  0.13333333       0.007
  -0.33333333  0.46666667  0.13333333       0.007
  -0.40000000  0.40000000  0.20000000       0.007
  -0.33333333  0.40000000  0.20000000       0.014
  -0.33333333  0.46666667  0.20000000       0.007
  -0.26666667  0.46666667  0.20000000       0.007
 
 position of ions in fractional coordinates (direct lattice) 
   0.87500000  0.87500000  0.87500000
   0.12500000  0.12500000  0.12500000
 
 position of ions in cartesian coordinates  (Angst):
   5.07500000  5.07500000  5.07500000
   0.72500000  0.72500000  0.72500000
 


--------------------------------------------------------------------------------------------------------


 k-point  1 :   0.0000 0.0000 0.0000  plane waves:     169
 k-point  2 :   0.0667 0.0000 0.0000  plane waves:     172
 k-point  3 :   0.1333 0.0000 0.0000  plane waves:     172
 k-point  4 :   0.2000 0.0000 0.0000  plane waves:     172
 k-point  5 :   0.2667 0.0000 0.0000  plane waves:     180
 k-point  6 :   0.3333 0.0000 0.0000  plane waves:     183
 k-point  7 :   0.4000 0.0000 0.0000  plane waves:     177
 k-point  8 :   0.4667 0.0000 0.0000  plane waves:     180
 k-point  9 :   0.0667 0.0667 0.0000  plane waves:     173
 k-point 10 :   0.1333 0.0667 0.0000  plane waves:     174
 k-point 11 :   0.2000 0.0667 0.0000  plane waves:     174
 k-point 12 :   0.2667 0.0667 0.0000  plane waves:     180
 k-point 13 :   0.3333 0.0667 0.0000  plane waves:     185
 k-point 14 :   0.4000 0.0667 0.0000  plane waves:     182
 k-point 15 :   0.4667 0.0667 0.0000  plane waves:     176
 k-point 16 :  -0.4667 0.0667 0.0000  plane waves:     176
 k-point 17 :  -0.4000 0.0667 0.0000  plane waves:     180
 k-point 18 :  -0.3333 0.0667 0.0000  plane waves:     182
 k-point 19 :  -0.2667 0.0667 0.0000  plane waves:     182
 k-point 20 :  -0.2000 0.0667 0.0000  plane waves:     180
 k-point 21 :  -0.1333 0.0667 0.0000  plane waves:     174
 k-point 22 :  -0.0667 0.0667 0.0000  plane waves:     174
 k-point 23 :   0.1333 0.1333 0.0000  plane waves:     173
 k-point 24 :   0.2000 0.1333 0.0000  plane waves:     176
 k-point 25 :   0.2667 0.1333 0.0000  plane waves:     179
 k-point 26 :   0.3333 0.1333 0.0000  plane waves:     184
 k-point 27 :   0.4000 0.1333 0.0000  plane waves:     185
 k-point 28 :   0.4667 0.1333 0.0000  plane waves:     182
 k-point 29 :  -0.4667 0.1333 0.0000  plane waves:     182
 k-point 30 :  -0.4000 0.1333 0.0000  plane waves:     181
 k-point 31 :  -0.3333 0.1333 0.0000  plane waves:     183
 k-point 32 :  -0.2667 0.1333 0.0000  plane waves:     180
 k-point 33 :  -0.2000 0.1333 0.0000  plane waves:     179
 k-point 34 :  -0.1333 0.1333 0.0000  plane waves:     178
 k-point 35 :   0.2000 0.2000 0.0000  plane waves:     181
 k-point 36 :   0.2667 0.2000 0.0000  plane waves:     179
 k-point 37 :   0.3333 0.2000 0.0000  plane waves:     184
 k-point 38 :   0.4000 0.2000 0.0000  plane waves:     189
 k-point 39 :   0.4667 0.2000 0.0000  plane waves:     184
 k-point 40 :  -0.4667 0.2000 0.0000  plane waves:     182
 k-point 41 :  -0.4000 0.2000 0.0000  plane waves:     183
 k-point 42 :  -0.3333 0.2000 0.0000  plane waves:     182
 k-point 43 :  -0.2667 0.2000 0.0000  plane waves:     186
 k-point 44 :  -0.2000 0.2000 0.0000  plane waves:     178
 k-point 45 :   0.2667 0.2667 0.0000  plane waves:     178
 k-point 46 :   0.3333 0.2667 0.0000  plane waves:     186
 k-point 47 :   0.4000 0.2667 0.0000  plane waves:     184
 k-point 48 :   0.4667 0.2667 0.0000  plane waves:     186
 k-point 49 :  -0.4667 0.2667 0.0000  plane waves:     184
 k-point 50 :  -0.4000 0.2667 0.0000  plane waves:     181
 k-point 51 :  -0.3333 0.2667 0.0000  plane waves:     182
 k-point 52 :  -0.2667 0.2667 0.0000  plane waves:     188
 k-point 53 :   0.3333 0.3333 0.0000  plane waves:     182
 k-point 54 :   0.4000 0.3333 0.0000  plane waves:     185
 k-point 55 :   0.4667 0.3333 0.0000  plane waves:     187
 k-point 56 :  -0.4667 0.3333 0.0000  plane waves:     188
 k-point 57 :  -0.4000 0.3333 0.0000  plane waves:     184
 k-point 58 :  -0.3333 0.3333 0.0000  plane waves:     186
 k-point 59 :   0.4000 0.4000 0.0000  plane waves:     194
 k-point 60 :   0.4667 0.4000 0.0000  plane waves:     189
 k-point 61 :  -0.4667 0.4000 0.0000  plane waves:     187
 k-point 62 :  -0.4000 0.4000 0.0000  plane waves:     182
 k-point 63 :   0.4667 0.4667 0.0000  plane waves:     190
 k-point 64 :  -0.4667 0.4667 0.0000  plane waves:     190
 k-point 65 :   0.2000 0.1333 0.0667  plane waves:     175
 k-point 66 :   0.2667 0.1333 0.0667  plane waves:     180
 k-point 67 :   0.3333 0.1333 0.0667  plane waves:     182
 k-point 68 :   0.4000 0.1333 0.0667  plane waves:     186
 k-point 69 :   0.4667 0.1333 0.0667  plane waves:     180
 k-point 70 :  -0.4667 0.1333 0.0667  plane waves:     180
 k-point 71 :   0.2667 0.2000 0.0667  plane waves:     177
 k-point 72 :   0.3333 0.2000 0.0667  plane waves:     181
 k-point 73 :   0.4000 0.2000 0.0667  plane waves:     182
 k-point 74 :   0.4667 0.2000 0.0667  plane waves:     181
 k-point 75 :  -0.4667 0.2000 0.0667  plane waves:     182
 k-point 76 :  -0.4000 0.2000 0.0667  plane waves:     182
 k-point 77 :  -0.3333 0.2000 0.0667  plane waves:     181
 k-point 78 :  -0.2667 0.2000 0.0667  plane waves:     182
 k-point 79 :  -0.2000 0.2000 0.0667  plane waves:     182
 k-point 80 :  -0.1333 0.2000 0.0667  plane waves:     181
 k-point 81 :   0.3333 0.2667 0.0667  plane waves:     184
 k-point 82 :   0.4000 0.2667 0.0667  plane waves:     183
 k-point 83 :   0.4667 0.2667 0.0667  plane waves:     187
 k-point 84 :  -0.4667 0.2667 0.0667  plane waves:     187
 k-point 85 :  -0.4000 0.2667 0.0667  plane waves:     182
 k-point 86 :  -0.3333 0.2667 0.0667  plane waves:     182
 k-point 87 :  -0.2667 0.2667 0.0667  plane waves:     185
 k-point 88 :  -0.2000 0.2667 0.0667  plane waves:     183
 k-point 89 :   0.4000 0.3333 0.0667  plane waves:     184
 k-point 90 :   0.4667 0.3333 0.0667  plane waves:     186
 k-point 91 :  -0.4667 0.3333 0.0667  plane waves:     186
 k-point 92 :  -0.4000 0.3333 0.0667  plane waves:     185
 k-point 93 :  -0.3333 0.3333 0.0667  plane waves:     184
 k-point 94 :  -0.2667 0.3333 0.0667  plane waves:     183
 k-point 95 :   0.4667 0.4000 0.0667  plane waves:     187
 k-point 96 :  -0.4667 0.4000 0.0667  plane waves:     188
 k-point 97 :  -0.4000 0.4000 0.0667  plane waves:     187
 k-point 98 :  -0.3333 0.4000 0.0667  plane waves:     186
 k-point 99 :  -0.4667 0.4667 0.0667  plane waves:     188
 k-point ** :  -0.4000 0.4667 0.0667  plane waves:     188
 k-point ** :   0.4000 0.2667 0.1333  plane waves:     182
 k-point ** :   0.4667 0.2667 0.1333  plane waves:     183
 k-point ** :  -0.4667 0.2667 0.1333  plane waves:     187
 k-point ** :  -0.4000 0.2667 0.1333  plane waves:     186
 k-point ** :   0.4667 0.3333 0.1333  plane waves:     184
 k-point ** :  -0.4667 0.3333 0.1333  plane waves:     187
 k-point ** :  -0.4000 0.3333 0.1333  plane waves:     187
 k-point ** :  -0.3333 0.3333 0.1333  plane waves:     183
 k-point ** :  -0.2667 0.3333 0.1333  plane waves:     187
 k-point ** :  -0.2000 0.3333 0.1333  plane waves:     185
 k-point ** :  -0.4667 0.4000 0.1333  plane waves:     185
 k-point ** :  -0.4000 0.4000 0.1333  plane waves:     190
 k-point ** :  -0.3333 0.4000 0.1333  plane waves:     186
 k-point ** :  -0.2667 0.4000 0.1333  plane waves:     186
 k-point ** :  -0.4000 0.4667 0.1333  plane waves:     188
 k-point ** :  -0.3333 0.4667 0.1333  plane waves:     186
 k-point ** :  -0.4000 0.4000 0.2000  plane waves:     189
 k-point ** :  -0.3333 0.4000 0.2000  plane waves:     189
 k-point ** :  -0.3333 0.4667 0.2000  plane waves:     191
 k-point ** :  -0.2667 0.4667 0.2000  plane waves:     189

 maximum and minimum number of plane-waves per node :       194      169

 maximum number of plane-waves:       194
 maximum index in each direction: 
   IXMAX=    4   IYMAX=    3   IZMAX=    3
   IXMIN=   -4   IYMIN=   -4   IZMIN=   -4

 WARNING: aliasing errors must be expected set NGX to  18 to avoid them
 WARNING: aliasing errors must be expected set NGY to  16 to avoid them
 WARNING: aliasing errors must be expected set NGZ to  16 to avoid them
 aliasing errors are usually negligible using standard VASP settings
 and one can safely disregard these warnings

 serial   3D FFT for wavefunctions
 parallel 3D FFT for charge:
    minimum data exchange during FFTs selected (reduces bandwidth)


 total amount of memory used by VASP on root node    32217. kBytes
========================================================================

   base      :      30000. kBytes
   nonl-proj :       1604. kBytes
   fftplans  :         48. kBytes
   grid      :        129. kBytes
   one-center:          6. kBytes
   wavefun   :        430. kBytes
 
     INWAV:  cpu time    0.0000: real time    0.0001
 Broyden mixing: mesh for mixing (old mesh)
   NGX =  7   NGY =  7   NGZ =  7
  (NGX  = 24   NGY  = 24   NGZ  = 24)
  gives a total of    343 points

 initial charge density was supplied:
 charge density of overlapping atoms calculated
 number of electron       8.0000000 magnetization 
 keeping initial charge density in first step


--------------------------------------------------------------------------------------------------------


 Maximum index for augmentation-charges          160 (set IRDMAX)


--------------------------------------------------------------------------------------------------------


 First call to EWALD:  gamma=   0.485
 Maximum number of real-space cells 3x 3x 3
 Maximum number of reciprocal cells 3x 3x 3

 FEWALD executed in parallel
    FEWALD:  cpu time    0.0020: real time    0.0021


----------------------------------------- Iteration    1(   1)  ---------------------------------------


    POTLOK:  cpu time    0.0020: real time    0.0019
    SETDIJ:  cpu time    0.0010: real time    0.0015
     EDDAV:  cpu time    0.4409: real time    0.4404
       DOS:  cpu time    0.0010: real time    0.0007
    --------------------------------------------
      LOOP:  cpu time    0.4459: real time    0.5032

 eigenvalue-minimisations  :  4688
 total energy-change (2. order) :-0.8895022E+01  (-0.1471643E+03)
 number of electron       8.0000000 magnetization 
 augmentation part        8.0000000 magnetization 

 Free energy of the ion-electron system (eV)
  ---------------------------------------------------
  alpha Z        PSCENC =         2.76051321
  Ewald energy   TEWEN  =      -213.98274834
  -Hartree energ DENC   =       -14.16697611
  -exchange      EXHF   =         0.00000000
  -V(xc)+E(xc)   XCENC  =       -19.33121656
  PAW double counting   =        65.95520812      -30.76852678
  entropy T*S    EENTRO =        -0.00000000
  eigenvalues    EBANDS =        -5.44067716
  atomic energy  EATOM  =       206.07940169
  Solvation  Ediel_sol  =         0.00000000
  ---------------------------------------------------
  free energy    TOTEN  =        -8.89502194 eV

  energy without entropy =       -8.89502193  energy(sigma->0) =       -8.89502193


--------------------------------------------------------------------------------------------------------




----------------------------------------- Iteration    1(   2)  ---------------------------------------


     EDDAV:  cpu time    0.5729: real time    0.5731
       DOS:  cpu time    0.0000: real time    0.0005
    --------------------------------------------
      LOOP:  cpu time    0.5729: real time    0.5781

 eigenvalue-minimisations  :  5600
 total energy-change (2. order) :-0.1660897E+01  (-0.1660897E+01)
 number of electron       8.0000000 magnetization 
 augmentation part        8.0000000 magnetization 

 Free energy of the ion-electron system (eV)
  ---------------------------------------------------
  alpha Z        PSCENC =         2.76051321
  Ewald energy   TEWEN  =      -213.98274834
  -Hartree energ DENC   =       -14.16697611
  -exchange      EXHF   =         0.00000000
  -V(xc)+E(xc)   XCENC  =       -19.33121656
  PAW double counting   =        65.95520812      -30.76852678
  entropy T*S    EENTRO =        -0.00000000
  eigenvalues    EBANDS =        -7.10157433
  atomic energy  EATOM  =       206.07940169
  Solvation  Ediel_sol  =         0.00000000
  ---------------------------------------------------
  free energy    TOTEN  =       -10.55591910 eV

  energy without entropy =      -10.55591910  energy(sigma->0) =      -10.55591910


--------------------------------------------------------------------------------------------------------




----------------------------------------- Iteration    1(   3)  ---------------------------------------


     EDDAV:  cpu time    0.4979: real time    0.4977
       DOS:  cpu time    0.0000: real time    0.0005
    --------------------------------------------
      LOOP:  cpu time    0.4989: real time    0.5070

 eigenvalue-minimisations  :  4912
 total energy-change (2. order) :-0.3362841E-02  (-0.3362841E-02)
 number of electron       8.0000000 magnetization 
 augmentation part        8.0000000 magnetization 

 Free energy of the ion-electron system (eV)
  ---------------------------------------------------
  alpha Z        PSCENC =         2.76051321
  Ewald energy   TEWEN  =      -213.98274834
  -Hartree energ DENC   =       -14.16697611
  -exchange      EXHF   =         0.00000000
  -V(xc)+E(xc)   XCENC  =       -19.33121656
  PAW double counting   =        65.95520812      -30.76852678
  entropy T*S    EENTRO =        -0.00000000
  eigenvalues    EBANDS =        -7.10493717
  atomic energy  EATOM  =       206.07940169
  Solvation  Ediel_sol  =         0.00000000
  ---------------------------------------------------
  free energy    TOTEN  =       -10.55928194 eV

  energy without entropy =      -10.55928194  energy(sigma->0) =      -10.55928194


--------------------------------------------------------------------------------------------------------




----------------------------------------- Iteration    1(   4)  ---------------------------------------


     EDDAV:  cpu time    0.7129: real time    0.7124
       DOS:  cpu time    0.0000: real time    0.0006
    --------------------------------------------
      LOOP:  cpu time    0.7139: real time    0.7266

 eigenvalue-minimisations  :  6288
 total energy-change (2. order) :-0.2030198E-05  (-0.2030198E-05)
 number of electron       8.0000000 magnetization 
 augmentation part        8.0000000 magnetization 

 Free energy of the ion-electron system (eV)
  ---------------------------------------------------
  alpha Z        PSCENC =         2.76051321
  Ewald energy   TEWEN  =      -213.98274834
  -Hartree energ DENC   =       -14.16697611
  -exchange      EXHF   =         0.00000000
  -V(xc)+E(xc)   XCENC  =       -19.33121656
  PAW double counting   =        65.95520812      -30.76852678
  entropy T*S    EENTRO =        -0.00000000
  eigenvalues    EBANDS =        -7.10493920
  atomic energy  EATOM  =       206.07940169
  Solvation  Ediel_sol  =         0.00000000
  ---------------------------------------------------
  free energy    TOTEN  =       -10.55928397 eV

  energy without entropy =      -10.55928397  energy(sigma->0) =      -10.55928397


--------------------------------------------------------------------------------------------------------




----------------------------------------- Iteration    1(   5)  ---------------------------------------


     EDDAV:  cpu time    0.4669: real time    0.4676
       DOS:  cpu time    0.0010: real time    0.0006
    CHARGE:  cpu time    0.0040: real time    0.0042
    MIXING:  cpu time    0.0010: real time    0.0003
    --------------------------------------------
      LOOP:  cpu time    0.4739: real time    0.4815

 eigenvalue-minimisations  :  4736
 total energy-change (2. order) :-0.4422418E-10  (-0.4421404E-10)
 number of electron       7.9999931 magnetization 
 augmentation part       -0.4606139 magnetization 

 Broyden mixing:
  rms(total) = 0.25004E+00    rms(broyden)= 0.24930E+00
  rms(prec ) = 0.68745E+00
  weight for this iteration     100.00

 Free energy of the ion-electron system (eV)
  ---------------------------------------------------
  alpha Z        PSCENC =         2.76051321
  Ewald energy   TEWEN  =      -213.98274834
  -Hartree energ DENC   =       -14.16697611
  -exchange      EXHF   =         0.00000000
  -V(xc)+E(xc)   XCENC  =       -19.33121656
  PAW double counting   =        65.95520812      -30.76852678
  entropy T*S    EENTRO =        -0.00000000
  eigenvalues    EBANDS =        -7.10493920
  atomic energy  EATOM  =       206.07940169
  Solvation  Ediel_sol  =         0.00000000
  ---------------------------------------------------
  free energy    TOTEN  =       -10.55928397 eV

  energy without entropy =      -10.55928397  energy(sigma->0) =      -10.55928397


--------------------------------------------------------------------------------------------------------




----------------------------------------- Iteration    1(   6)  ---------------------------------------


    POTLOK:  cpu time    0.0010: real time    0.0013
    SETDIJ:  cpu time    0.0020: real time    0.0014
     EDDAV:  cpu time    0.5229: real time    0.5231
       DOS:  cpu time    0.0000: real time    0.0005
    CHARGE:  cpu time    0.0040: real time    0.0039
    MIXING:  cpu time    0.0010: real time    0.0003
    --------------------------------------------
      LOOP:  cpu time    0.5309: real time    0.5351

 eigenvalue-minimisations  :  5136
 total energy-change (2. order) : 0.5856270E-01  (-0.2817987E-02)
 number of electron       7.9999931 magnetization 
 augmentation part       -0.4576340 magnetization 

 Broyden mixing:
  rms(total) = 0.15191E+00    rms(broyden)= 0.15186E+00
  rms(prec ) = 0.41966E+00
  weight for this iteration     100.00

 eigenvalues of (default mixing * dielectric matrix)
  average eigenvalue GAMMA=   2.5432
  2.5432

 Free energy of the ion-electron system (eV)
  ---------------------------------------------------
  alpha Z        PSCENC =         2.76051321
  Ewald energy   TEWEN  =      -213.98274834
  -Hartree energ DENC   =       -15.29510805
  -exchange      EXHF   =         0.00000000
  -V(xc)+E(xc)   XCENC  =       -19.14230569
  PAW double counting   =        68.45432650      -33.31473128
  entropy T*S    EENTRO =        -0.00000000
  eigenvalues    EBANDS =        -6.06006932
  atomic energy  EATOM  =       206.07940169
  Solvation  Ediel_sol  =         0.00000000
  ---------------------------------------------------
  free energy    TOTEN  =       -10.50072127 eV

  energy without entropy =      -10.50072127  energy(sigma->0) =      -10.50072127


--------------------------------------------------------------------------------------------------------




----------------------------------------- Iteration    1(   7)  ---------------------------------------


    POTLOK:  cpu time    0.0010: real time    0.0013
    SETDIJ:  cpu time    0.0010: real time    0.0014
     EDDAV:  cpu time    0.5809: real time    0.5809
       DOS:  cpu time    0.0010: real time    0.0005
    CHARGE:  cpu time    0.0040: real time    0.0039
    MIXING:  cpu time    0.0000: real time    0.0002
    --------------------------------------------
      LOOP:  cpu time    0.5879: real time    0.5974

 eigenvalue-minimisations  :  5520
 total energy-change (2. order) : 0.3253736E-01  (-0.6779547E-02)
 number of electron       7.9999932 magnetization 
 augmentation part       -0.4544544 magnetization 

 Broyden mixing:
  rms(total) = 0.10515E-01    rms(broyden)= 0.10421E-01
  rms(prec ) = 0.26501E-01
  weight for this iteration     100.00

 eigenvalues of (default mixing * dielectric matrix)
  average eigenvalue GAMMA=   2.5405
  2.5405  2.5405

 Free energy of the ion-electron system (eV)
  ---------------------------------------------------
  alpha Z        PSCENC =         2.76051321
  Ewald energy   TEWEN  =      -213.98274834
  -Hartree energ DENC   =       -17.30348481
  -exchange      EXHF   =         0.00000000
  -V(xc)+E(xc)   XCENC  =       -18.80095886
  PAW double counting   =        71.83469559      -36.75453404
  entropy T*S    EENTRO =        -0.00000000
  eigenvalues    EBANDS =        -4.30106837
  atomic energy  EATOM  =       206.07940169
  Solvation  Ediel_sol  =         0.00000000
  ---------------------------------------------------
  free energy    TOTEN  =       -10.46818391 eV

  energy without entropy =      -10.46818391  energy(sigma->0) =      -10.46818391


--------------------------------------------------------------------------------------------------------




----------------------------------------- Iteration    1(   8)  ---------------------------------------


    POTLOK:  cpu time    0.0010: real time    0.0013
    SETDIJ:  cpu time    0.0010: real time    0.0013
     EDDAV:  cpu time    0.4689: real time    0.4685
       DOS:  cpu time    0.0000: real time    0.0005
    CHARGE:  cpu time    0.0030: real time    0.0039
    MIXING:  cpu time    0.0010: real time    0.0002
    --------------------------------------------
      LOOP:  cpu time    0.4759: real time    0.4806

 eigenvalue-minimisations  :  4736
 total energy-change (2. order) :-0.1354114E-02  (-0.2248772E-03)
 number of electron       7.9999932 magnetization 
 augmentation part       -0.4547433 magnetization 

 Broyden mixing:
  rms(total) = 0.27411E-02    rms(broyden)= 0.27209E-02
  rms(prec ) = 0.89969E-02
  weight for this iteration     100.00

 eigenvalues of (default mixing * dielectric matrix)
  average eigenvalue GAMMA=   2.1897
  1.1436  2.3929  3.0325

 Free energy of the ion-electron system (eV)
  ---------------------------------------------------
  alpha Z        PSCENC =         2.76051321
  Ewald energy   TEWEN  =      -213.98274834
  -Hartree energ DENC   =       -17.27395784
  -exchange      EXHF   =         0.00000000
  -V(xc)+E(xc)   XCENC  =       -18.80253068
  PAW double counting   =        71.15699044      -36.05833902
  entropy T*S    EENTRO =        -0.00000000
  eigenvalues    EBANDS =        -4.34886749
  atomic energy  EATOM  =       206.07940169
  Solvation  Ediel_sol  =         0.00000000
  ---------------------------------------------------
  free energy    TOTEN  =       -10.46953802 eV

  energy without entropy =      -10.46953802  energy(sigma->0) =      -10.46953802


--------------------------------------------------------------------------------------------------------




----------------------------------------- Iteration    1(   9)  ---------------------------------------


    POTLOK:  cpu time    0.0010: real time    0.0013
    SETDIJ:  cpu time    0.0020: real time    0.0014
     EDDAV:  cpu time    0.6689: real time    0.6693
       DOS:  cpu time    0.0000: real time    0.0005
    CHARGE:  cpu time    0.0040: real time    0.0039
    MIXING:  cpu time    0.0010: real time    0.0002
    --------------------------------------------
      LOOP:  cpu time    0.6779: real time    0.6859

 eigenvalue-minimisations  :  6112
 total energy-change (2. order) :-0.1544214E-03  (-0.1827635E-04)
 number of electron       7.9999932 magnetization 
 augmentation part       -0.4547795 magnetization 

 Broyden mixing:
  rms(total) = 0.11790E-02    rms(broyden)= 0.11773E-02
  rms(prec ) = 0.30783E-02
  weight for this iteration     100.00

 eigenvalues of (default mixing * dielectric matrix)
  average eigenvalue GAMMA=   2.3080
  0.9570  3.1901  2.5425  2.5425

 Free energy of the ion-electron system (eV)
  ---------------------------------------------------
  alpha Z        PSCENC =         2.76051321
  Ewald energy   TEWEN  =      -213.98274834
  -Hartree energ DENC   =       -17.32383210
  -exchange      EXHF   =         0.00000000
  -V(xc)+E(xc)   XCENC  =       -18.79421779
  PAW double counting   =        71.09378328      -35.99290093
  entropy T*S    EENTRO =        -0.00000000
  eigenvalues    EBANDS =        -4.30969147
  atomic energy  EATOM  =       206.07940169
  Solvation  Ediel_sol  =         0.00000000
  ---------------------------------------------------
  free energy    TOTEN  =       -10.46969245 eV

  energy without entropy =      -10.46969245  energy(sigma->0) =      -10.46969245


--------------------------------------------------------------------------------------------------------




----------------------------------------- Iteration    1(  10)  ---------------------------------------


    POTLOK:  cpu time    0.0000: real time    0.0012
    SETDIJ:  cpu time    0.0020: real time    0.0014
     EDDAV:  cpu time    0.5039: real time    0.5036
       DOS:  cpu time    0.0000: real time    0.0006
    CHARGE:  cpu time    0.0040: real time    0.0039
    MIXING:  cpu time    0.0000: real time    0.0002
    --------------------------------------------
      LOOP:  cpu time    0.5099: real time    0.5156

 eigenvalue-minimisations  :  5024
 total energy-change (2. order) :-0.1293350E-04  (-0.2145665E-05)
 number of electron       7.9999932 magnetization 
 augmentation part       -0.4546617 magnetization 

 Broyden mixing:
  rms(total) = 0.23650E-03    rms(broyden)= 0.23256E-03
  rms(prec ) = 0.70363E-03
  weight for this iteration     100.00

 eigenvalues of (default mixing * dielectric matrix)
  average eigenvalue GAMMA=   2.1093
  3.3746  2.7028  2.1730  0.9467  1.3493

 Free energy of the ion-electron system (eV)
  ---------------------------------------------------
  alpha Z        PSCENC =         2.76051321
  Ewald energy   TEWEN  =      -213.98274834
  -Hartree energ DENC   =       -17.33654885
  -exchange      EXHF   =         0.00000000
  -V(xc)+E(xc)   XCENC  =       -18.79412835
  PAW double counting   =        71.14727584      -36.04840755
  entropy T*S    EENTRO =        -0.00000000
  eigenvalues    EBANDS =        -4.29506304
  atomic energy  EATOM  =       206.07940169
  Solvation  Ediel_sol  =         0.00000000
  ---------------------------------------------------
  free energy    TOTEN  =       -10.46970538 eV

  energy without entropy =      -10.46970538  energy(sigma->0) =      -10.46970538


--------------------------------------------------------------------------------------------------------




----------------------------------------- Iteration    1(  11)  ---------------------------------------


    POTLOK:  cpu time    0.0010: real time    0.0013
    SETDIJ:  cpu time    0.0020: real time    0.0014
     EDDAV:  cpu time    0.6779: real time    0.6783
       DOS:  cpu time    0.0010: real time    0.0005
    CHARGE:  cpu time    0.0040: real time    0.0041
    MIXING:  cpu time    0.0000: real time    0.0002
    --------------------------------------------
      LOOP:  cpu time    0.6869: real time    0.6949

 eigenvalue-minimisations  :  6080
 total energy-change (2. order) : 0.1370133E-05  (-0.9679267E-07)
 number of electron       7.9999932 magnetization 
 augmentation part       -0.4546861 magnetization 

 Broyden mixing:
  rms(total) = 0.40923E-04    rms(broyden)= 0.40688E-04
  rms(prec ) = 0.66739E-04
  weight for this iteration     100.00

 eigenvalues of (default mixing * dielectric matrix)
  average eigenvalue GAMMA=   2.1624
  3.3445  2.8775  2.5430  2.2424  0.9572  1.0095

 Free energy of the ion-electron system (eV)
  ---------------------------------------------------
  alpha Z        PSCENC =         2.76051321
  Ewald energy   TEWEN  =      -213.98274834
  -Hartree energ DENC   =       -17.33332216
  -exchange      EXHF   =         0.00000000
  -V(xc)+E(xc)   XCENC  =       -18.79438460
  PAW double counting   =        71.12541936      -36.02586269
  entropy T*S    EENTRO =        -0.00000000
  eigenvalues    EBANDS =        -4.29872049
  atomic energy  EATOM  =       206.07940169
  Solvation  Ediel_sol  =         0.00000000
  ---------------------------------------------------
  free energy    TOTEN  =       -10.46970401 eV

  energy without entropy =      -10.46970401  energy(sigma->0) =      -10.46970401


--------------------------------------------------------------------------------------------------------




----------------------------------------- Iteration    1(  12)  ---------------------------------------


    POTLOK:  cpu time    0.0010: real time    0.0013
    SETDIJ:  cpu time    0.0010: real time    0.0013
     EDDAV:  cpu time    0.2440: real time    0.2440
       DOS:  cpu time    0.0010: real time    0.0005
    --------------------------------------------
      LOOP:  cpu time    0.2480: real time    0.2518

 eigenvalue-minimisations  :  2688
 total energy-change (2. order) : 0.1684292E-06  (-0.3873431E-08)
 number of electron       7.9999932 magnetization 
 augmentation part       -0.4546861 magnetization 

 Free energy of the ion-electron system (eV)
  ---------------------------------------------------
  alpha Z        PSCENC =         2.76051321
  Ewald energy   TEWEN  =      -213.98274834
  -Hartree energ DENC   =       -17.33342738
  -exchange      EXHF   =         0.00000000
  -V(xc)+E(xc)   XCENC  =       -18.79436511
  PAW double counting   =        71.12496315      -36.02532475
  entropy T*S    EENTRO =        -0.00000000
  eigenvalues    EBANDS =        -4.29871632
  atomic energy  EATOM  =       206.07940169
  Solvation  Ediel_sol  =         0.00000000
  ---------------------------------------------------
  free energy    TOTEN  =       -10.46970384 eV

  energy without entropy =      -10.46970384  energy(sigma->0) =      -10.46970384


--------------------------------------------------------------------------------------------------------




 average (electrostatic) potential at core
  the test charge radii are     0.9892
  (the norm of the test charge is              1.0000)
       1 -85.3437       2 -85.3437
 
 
 
 E-fermi :   4.4332     XC(G=0):  -8.6562     alpha+bet : -9.8341


 k-point     1 :       0.0000    0.0000    0.0000
  band No.  band energies     occupation 
      1      -6.7186      2.00000
      2       4.0444      2.00000
      3       4.0444      2.00000
      4       4.0449      2.00000
      5       5.2543      0.00000
      6       6.5203      0.00000
      7       6.5203      0.00000
      8       6.5208      0.00000
      9      11.2452      0.00000
     10      11.8957      0.00000
     11      11.8957      0.00000
     12      14.7411      0.00000
     13      14.7411      0.00000
     14      14.7414      0.00000
     15      18.2786      0.00000
     16      25.8463      0.00000

 k-point     2 :       0.0667    0.0000    0.0000
  band No.  band energies     occupation 
      1      -6.6697      2.00000
      2       3.3489      2.00000
      3       3.9641      2.00000
      4       3.9646      2.00000
      5       5.6470      0.00000
      6       6.6346      0.00000
      7       6.6351      0.00000
      8       6.7400      0.00000
      9      11.4614      0.00000
     10      11.7236      0.00000
     11      11.7237      0.00000
     12      14.5384      0.00000
     13      15.0796      0.00000
     14      15.0797      0.00000
     15      18.6390      0.00000
     16      24.5937      0.00000

 k-point     3 :       0.1333    0.0000    0.0000
  band No.  band energies     occupation 
      1      -6.5238      2.00000
      2       2.2530      2.00000
      3       3.7756      2.00000
      4       3.7761      2.00000
      5       5.7075      0.00000
      6       6.9131      0.00000
      7       6.9136      0.00000
      8       7.5821      0.00000
      9      11.4167      0.00000
     10      11.4168      0.00000
     11      12.0081      0.00000
     12      14.1866      0.00000
     13      15.9177      0.00000
     14      15.9178      0.00000
     15      19.5167      0.00000
     16      23.1636      0.00000

 k-point     4 :       0.2000    0.0000    0.0000
  band No.  band energies     occupation 
      1      -6.2851      2.00000
      2       1.1470      2.00000
      3       3.5528      2.00000
      4       3.5532      2.00000
      5       5.5190      0.00000
      6       7.2199      0.00000
      7       7.2206      0.00000
      8       8.6617      0.00000
      9      11.2572      0.00000
     10      11.2574      0.00000
     11      12.4690      0.00000
     12      14.2207      0.00000
     13      16.9946      0.00000
     14      16.9947      0.00000
     15      20.4668      0.00000
     16      21.6478      0.00000

 k-point     5 :       0.2667    0.0000    0.0000
  band No.  band energies     occupation 
      1      -5.9636      2.00000
      2       0.1001      2.00000
      3       3.3431      2.00000
      4       3.3436      2.00000
      5       5.2860      0.00000
      6       7.4299      0.00000
      7       7.4306      0.00000
      8       9.7666      0.00000
      9      11.4060      0.00000
     10      11.4064      0.00000
     11      12.4158      0.00000
     12      15.0325      0.00000
     13      17.9835      0.00000
     14      17.9845      0.00000
     15      19.8975      0.00000
     16      20.2577      0.00000

 k-point     6 :       0.3333    0.0000    0.0000
  band No.  band energies     occupation 
      1      -5.5788      2.00000
      2      -0.8401      2.00000
      3       3.1760      2.00000
      4       3.1765      2.00000
      5       5.1001      0.00000
      6       7.5029      0.00000
      7       7.5036      0.00000
      8      10.8012      0.00000
      9      11.9085      0.00000
     10      11.9092      0.00000
     11      12.2769      0.00000
     12      15.9568      0.00000
     13      17.6404      0.00000
     14      17.6418      0.00000
     15      19.0819      0.00000
     16      20.4236      0.00000

 k-point     7 :       0.4000    0.0000    0.0000
  band No.  band energies     occupation 
      1      -5.1792      2.00000
      2      -1.6138      2.00000
      3       3.0618      2.00000
      4       3.0622      2.00000
      5       4.9667      0.00000
      6       7.4927      0.00000
      7       7.4934      0.00000
      8      11.3915      0.00000
      9      12.6486      0.00000
     10      12.7676      0.00000
     11      12.7682      0.00000
     12      15.8570      0.00000
     13      16.3489      0.00000
     14      16.3501      0.00000
     15      19.5003      0.00000
     16      21.8581      0.00000

 k-point     8 :       0.4667    0.0000    0.0000
  band No.  band energies     occupation 
      1      -4.8853      2.00000
      2      -2.0972      2.00000
      3       3.0015      2.00000
      4       3.0020      2.00000
      5       4.9012      0.00000
      6       7.4588      0.00000
      7       7.4596      0.00000
      8      11.4541      0.00000
      9      13.6249      0.00000
     10      13.8069      0.00000
     11      13.8077      0.00000
     12      14.9089      0.00000
     13      15.0233      0.00000
     14      15.0242      0.00000
     15      21.0237      0.00000
     16      22.9027      0.00000

 k-point     9 :       0.0667    0.0667    0.0000
  band No.  band energies     occupation 
      1      -6.6533      2.00000
      2       3.3521      2.00000
      3       3.8082      2.00000
      4       3.8086      2.00000
      5       5.9287      0.00000
      6       6.3674      0.00000
      7       6.8334      0.00000
      8       6.8338      0.00000
      9      11.3944      0.00000
     10      11.5329      0.00000
     11      11.9719      0.00000
     12      14.8538      0.00000
     13      14.8540      0.00000
     14      15.0899      0.00000
     15      18.7818      0.00000
     16      24.3741      0.00000

 k-point    10 :       0.1333    0.0667    0.0000
  band No.  band energies     occupation 
      1      -6.5395      2.00000
      2       2.5040      2.00000
      3       3.5791      2.00000
      4       3.6739      2.00000
      5       6.1403      0.00000
      6       6.4180      0.00000
      7       7.1700      0.00000
      8       7.4342      0.00000
      9      10.9883      0.00000
     10      11.9037      0.00000
     11      11.9802      0.00000
     12      14.5744      0.00000
     13      15.3040      0.00000
     14      15.8717      0.00000
     15      19.5169      0.00000
     16      23.1206      0.00000

 k-point    11 :       0.2000    0.0667    0.0000
  band No.  band energies     occupation 
      1      -6.3312      2.00000
[...]
      5       5.4945      0.00000
      6       6.1572      0.00000
      7      11.4574      0.00000
      8      11.5260      0.00000
      9      13.1407      0.00000
     10      13.8153      0.00000
     11      15.4238      0.00000
     12      16.2422      0.00000
     13      17.5352      0.00000
     14      17.6817      0.00000
     15      20.2042      0.00000
     16      20.3920      0.00000

 k-point   101 :       0.4000    0.2667    0.1333
  band No.  band energies     occupation 
      1      -5.4621      2.00000
      2      -0.4294      2.00000
      3       1.6558      2.00000
      4       2.6962      2.00000
      5       6.4864      0.00000
      6       7.1576      0.00000
      7       8.2789      0.00000
      8       9.2580      0.00000
      9      11.4349      0.00000
     10      13.7190      0.00000
     11      14.0298      0.00000
     12      15.7918      0.00000
     13      16.9176      0.00000
     14      17.9383      0.00000
     15      18.7154      0.00000
     16      20.7768      0.00000

 k-point   102 :       0.4667    0.2667    0.1333
  band No.  band energies     occupation 
      1      -5.0800      2.00000
      2      -1.0827      2.00000
      3       1.3049      2.00000
      4       2.4767      2.00000
      5       6.7134      0.00000
      6       7.3375      0.00000
      7       8.2772      0.00000
      8       9.6180      0.00000
      9      11.9263      0.00000
     10      13.4319      0.00000
     11      14.8272      0.00000
     12      15.8469      0.00000
     13      17.0159      0.00000
     14      17.9759      0.00000
     15      19.1472      0.00000
     16      20.8336      0.00000

 k-point   103 :      -0.4667    0.2667    0.1333
  band No.  band energies     occupation 
      1      -4.6768      2.00000
      2      -1.7083      2.00000
      3       1.1049      2.00000
      4       2.2880      2.00000
      5       6.7322      0.00000
      6       7.3922      0.00000
      7       8.8338      0.00000
      8       9.7746      0.00000
      9      12.3119      0.00000
     10      12.7937      0.00000
     11      15.3298      0.00000
     12      15.9095      0.00000
     13      16.9199      0.00000
     14      18.3806      0.00000
     15      20.1404      0.00000
     16      20.5260      0.00000

 k-point   104 :      -0.4000    0.2667    0.1333
  band No.  band energies     occupation 
      1      -4.3692      2.00000
      2      -2.1378      2.00000
      3       1.0173      2.00000
      4       2.1816      2.00000
      5       6.7292      0.00000
      6       7.3319      0.00000
      7       9.4827      0.00000
      8      10.1082      0.00000
      9      11.1810      0.00000
     10      13.7806      0.00000
     11      14.9018      0.00000
     12      15.5509      0.00000
     13      17.5247      0.00000
     14      19.0133      0.00000
     15      19.8980      0.00000
     16      21.1710      0.00000

 k-point   105 :       0.4667    0.3333    0.1333
  band No.  band energies     occupation 
      1      -4.9236      2.00000
      2      -1.2175      2.00000
      3       1.3455      2.00000
      4       2.0953      2.00000
      5       6.2584      0.00000
      6       7.0821      0.00000
      7       8.5416      0.00000
      8      10.3935      0.00000
      9      12.4698      0.00000
     10      13.7281      0.00000
     11      14.9209      0.00000
     12      16.5423      0.00000
     13      16.8425      0.00000
     14      17.6903      0.00000
     15      18.8549      0.00000
     16      20.2841      0.00000

 k-point   106 :      -0.4667    0.3333    0.1333
  band No.  band energies     occupation 
      1      -4.5186      2.00000
      2      -1.7659      2.00000
      3       1.0331      2.00000
      4       1.8971      2.00000
      5       6.5441      0.00000
      6       7.5646      0.00000
      7       8.3118      0.00000
      8      10.7084      0.00000
      9      12.5345      0.00000
     10      13.1265      0.00000
     11      15.8304      0.00000
     12      16.1941      0.00000
     13      17.3466      0.00000
     14      17.7006      0.00000
     15      19.5235      0.00000
     16      20.6255      0.00000

 k-point   107 :      -0.4000    0.3333    0.1333
  band No.  band energies     occupation 
      1      -4.1526      2.00000
      2      -2.2216      2.00000
      3       0.8144      2.00000
      4       1.8047      2.00000
      5       6.6591      0.00000
      6       8.0311      0.00000
      7       8.5688      0.00000
      8      10.6228      0.00000
      9      11.4368      0.00000
     10      14.0503      0.00000
     11      15.0080      0.00000
     12      16.4422      0.00000
     13      17.8037      0.00000
     14      18.7932      0.00000
     15      20.0060      0.00000
     16      21.1219      0.00000

 k-point   108 :      -0.3333    0.3333    0.1333
  band No.  band energies     occupation 
      1      -4.0393      2.00000
      2      -2.3536      2.00000
      3       0.6992      2.00000
      4       1.8396      2.00000
      5       6.7951      0.00000
      6       7.8856      0.00000
      7       9.6531      0.00000
      8       9.8435      0.00000
      9      11.0112      0.00000
     10      13.7324      0.00000
     11      15.3277      0.00000
     12      16.4563      0.00000
     13      18.4850      0.00000
     14      19.2331      0.00000
     15      19.8850      0.00000
     16      20.3614      0.00000

 k-point   109 :      -0.2667    0.3333    0.1333
  band No.  band energies     occupation 
      1      -4.2930      2.00000
      2      -2.0514      2.00000
      3       0.7150      2.00000
      4       1.9876      2.00000
      5       6.9731      0.00000
      6       7.7414      0.00000
      7       8.8294      0.00000
      8      10.5498      0.00000
      9      11.1735      0.00000
     10      12.7410      0.00000
     11      16.3156      0.00000
     12      16.4523      0.00000
     13      18.0466      0.00000
     14      18.2290      0.00000
     15      19.5314      0.00000
     16      20.8005      0.00000

 k-point   110 :      -0.2000    0.3333    0.1333
  band No.  band energies     occupation 
      1      -4.6897      2.00000
      2      -1.5650      2.00000
      3       0.9053      2.00000
      4       2.2189      2.00000
      5       7.1608      0.00000
      6       7.3977      0.00000
      7       8.2508      0.00000
      8      10.2875      0.00000
      9      12.1084      0.00000
     10      12.3243      0.00000
     11      15.9502      0.00000
     12      16.7781      0.00000
     13      16.8748      0.00000
     14      18.0191      0.00000
     15      19.4059      0.00000
     16      20.6949      0.00000

 k-point   111 :      -0.4667    0.4000    0.1333
  band No.  band energies     occupation 
      1      -4.2890      2.00000
      2      -2.0151      2.00000
      3       1.1742      2.00000
      4       1.6175      2.00000
      5       6.1481      0.00000
      6       6.6668      0.00000
      7       9.3667      0.00000
      8      11.4216      0.00000
      9      12.9074      0.00000
     10      13.5518      0.00000
     11      15.6043      0.00000
     12      16.6636      0.00000
     13      16.9186      0.00000
     14      18.0827      0.00000
     15      19.3068      0.00000
     16      20.0285      0.00000

 k-point   112 :      -0.4000    0.4000    0.1333
  band No.  band energies     occupation 
      1      -3.8886      2.00000
      2      -2.4561      2.00000
      3       0.8891      2.00000
      4       1.4880      2.00000
      5       6.4137      0.00000
      6       7.3311      0.00000
      7       9.1342      0.00000
      8      11.0626      0.00000
      9      12.2487      0.00000
     10      14.1238      0.00000
     11      15.1179      0.00000
     12      16.8978      0.00000
     13      17.8635      0.00000
     14      18.3581      0.00000
     15      19.8269      0.00000
     16      20.5286      0.00000

 k-point   113 :      -0.3333    0.4000    0.1333
  band No.  band energies     occupation 
      1      -3.6800      2.00000
      2      -2.6678      2.00000
      3       0.6479      2.00000
      4       1.5435      2.00000
      5       6.5628      0.00000
      6       8.4014      0.00000
      7       8.9312      0.00000
      8       9.9613      0.00000
      9      12.0554      0.00000
     10      13.7273      0.00000
     11      15.4812      0.00000
     12      17.1506      0.00000
     13      18.2128      0.00000
     14      19.1996      0.00000
     15      19.9692      0.00000
     16      20.7192      0.00000

 k-point   114 :      -0.2667    0.4000    0.1333
  band No.  band energies     occupation 
      1      -3.9040      2.00000
      2      -2.4329      2.00000
      3       0.5677      2.00000
      4       1.7229      2.00000
      5       6.7580      0.00000
      6       8.6127      0.00000
      7       9.0117      0.00000
      8       9.6185      0.00000
      9      11.6332      0.00000
     10      13.0005      0.00000
     11      16.2056      0.00000
     12      17.4578      0.00000
     13      17.7548      0.00000
     14      18.9902      0.00000
     15      19.6242      0.00000
     16      20.9580      0.00000

 k-point   115 :      -0.4000    0.4667    0.1333
  band No.  band energies     occupation 
      1      -3.5771      2.00000
      2      -2.8099      2.00000
      3       1.1553      2.00000
      4       1.3007      2.00000
      5       6.1717      0.00000
      6       6.3440      0.00000
      7      10.3272      0.00000
      8      11.2922      0.00000
      9      13.1188      0.00000
     10      14.0138      0.00000
     11      15.2962      0.00000
     12      16.1635      0.00000
     13      17.7358      0.00000
     14      18.9530      0.00000
     15      19.4547      0.00000
     16      20.4540      0.00000

 k-point   116 :      -0.3333    0.4667    0.1333
  band No.  band energies     occupation 
      1      -3.3470      2.00000
      2      -3.0157      2.00000
      3       0.8516      2.00000
      4       1.3365      2.00000
      5       6.3724      0.00000
      6       7.2380      0.00000
      7      10.0596      0.00000
      8      10.1775      0.00000
      9      13.0042      0.00000
     10      13.7692      0.00000
     11      15.4840      0.00000
     12      16.3719      0.00000
     13      18.7803      0.00000
     14      19.3106      0.00000
     15      19.8001      0.00000
     16      19.8834      0.00000

 k-point   117 :      -0.4000    0.4000    0.2000
  band No.  band energies     occupation 
      1      -4.1141      2.00000
      2      -2.1984      2.00000
      3       0.7958      2.00000
      4       1.6075      2.00000
      5       7.2932      0.00000
      6       7.6711      0.00000
      7       8.0660      0.00000
      8      10.8948      0.00000
      9      11.8447      0.00000
     10      13.3086      0.00000
     11      15.9649      0.00000
     12      17.1300      0.00000
     13      17.4001      0.00000
     14      18.4503      0.00000
     15      19.1033      0.00000
     16      21.2951      0.00000

 k-point   118 :      -0.3333    0.4000    0.2000
  band No.  band energies     occupation 
      1      -3.7709      2.00000
      2      -2.5599      2.00000
      3       0.6891      2.00000
      4       1.4325      2.00000
      5       7.5541      0.00000
      6       7.7963      0.00000
      7       8.5944      0.00000
      8       9.7536      0.00000
      9      12.0673      0.00000
     10      13.9381      0.00000
     11      15.3010      0.00000
     12      17.0407      0.00000
     13      18.0521      0.00000
     14      19.3305      0.00000
     15      19.8614      0.00000
     16      20.9675      0.00000

 k-point   119 :      -0.3333    0.4667    0.2000
  band No.  band energies     occupation 
      1      -3.4879      2.00000
      2      -2.8418      2.00000
      3       0.8700      2.00000
      4       1.1422      2.00000
      5       7.3075      0.00000
      6       7.4567      0.00000
      7       8.8937      0.00000
      8       9.9052      0.00000
      9      12.9789      0.00000
     10      13.9277      0.00000
     11      15.3996      0.00000
     12      16.3091      0.00000
     13      18.6747      0.00000
     14      19.6943      0.00000
     15      19.7086      0.00000
     16      20.6290      0.00000

 k-point   120 :      -0.2667    0.4667    0.2000
  band No.  band energies     occupation 
      1      -3.4053      2.00000
      2      -2.9140      2.00000
      3       0.7556      2.00000
      4       1.1569      2.00000
      5       7.5410      0.00000
      6       8.5104      0.00000
      7       8.6333      0.00000
      8       8.7696      0.00000
      9      12.9631      0.00000
     10      13.8500      0.00000
     11      15.4613      0.00000
     12      16.3933      0.00000
     13      18.7917      0.00000
     14      19.6250      0.00000
     15      20.5477      0.00000
     16      20.5907      0.00000


--------------------------------------------------------------------------------------------------------


 soft charge-density along one line, spin component           1
         0         1         2         3         4         5         6         7         8         9
 total charge-density along one line
 
 pseudopotential strength for first ion, spin component:           1
 18.631   0.001  -0.000  -0.000  -0.000   0.000   0.000   0.000
  0.001   0.006   0.000   0.000   0.000  -0.000  -0.000  -0.000
 -0.000   0.000   4.201  -0.000  -0.000  -0.003   0.000   0.000
 -0.000   0.000  -0.000   4.201  -0.000   0.000  -0.003   0.000
 -0.000   0.000  -0.000  -0.000   4.201   0.000   0.000  -0.003
  0.000  -0.000  -0.003   0.000   0.000   0.005  -0.000  -0.000
  0.000  -0.000   0.000  -0.003   0.000  -0.000   0.005  -0.000
  0.000  -0.000   0.000   0.000  -0.003  -0.000  -0.000   0.005
 total augmentation occupancy for first ion, spin component:           1
  1.547  -0.643   0.000   0.000   0.000  -0.000  -0.000   0.000
 -0.643   0.611  -0.000  -0.000  -0.000   0.000   0.000   0.000
  0.000  -0.000   0.882   0.000   0.000  -0.800   0.000   0.000
 -0.000  -0.000  -0.000   0.882  -0.000   0.000  -0.800   0.000
  0.000  -0.000  -0.000  -0.000   0.882   0.000   0.000  -0.800
  0.000   0.000  -0.800   0.000   0.000   0.762   0.000   0.000
 -0.000   0.000  -0.000  -0.800   0.000   0.000   0.762  -0.000
 -0.000  -0.000   0.000   0.000  -0.800   0.000  -0.000   0.762


------------------------ aborting loop because EDIFF is reached ----------------------------------------


    CHARGE:  cpu time    0.0030: real time    0.0039
    FORLOC:  cpu time    0.0000: real time    0.0000
    FORNL :  cpu time    0.0070: real time    0.0060
    STRESS:  cpu time    0.0780: real time    0.0780
    FORCOR:  cpu time    0.0010: real time    0.0013
    FORHAR:  cpu time    0.0010: real time    0.0004
    MIXING:  cpu time    0.0000: real time    0.0002
    OFIELD:  cpu time    0.0000: real time    0.0000

  FORCE on cell =-STRESS in cart. coord.  units (eV):
  Direction    XX          YY          ZZ          XY          YZ          ZX
  --------------------------------------------------------------------------------------
  Alpha Z     2.76051     2.76051     2.76051
  Ewald     -71.32761   -71.32761   -71.32761    -0.00000    -0.00000    -0.00000
  Hartree     5.77779     5.77779     5.77779     0.00000     0.00000     0.00000
  E(xc)     -24.33057   -24.33057   -24.33057    -0.00021    -0.00020    -0.00020
  Local     -32.34957   -32.34957   -32.34955     0.00034     0.00034     0.00034
  n-local    76.31775    77.76646    72.28222     1.86217    -1.03286     0.35548
  augment   -11.60640   -11.60640   -11.60640    -0.00021    -0.00021    -0.00021
  Kinetic    54.46884    53.22061    49.37601     3.58132    -0.96763     1.02198
  Fock        0.00000     0.00000     0.00000     0.00000     0.00000     0.00000
  -------------------------------------------------------------------------------------
  Total      -3.26521    -3.26521    -3.26521     0.00000     0.00000     0.00000
  in kB    -107.25013  -107.25013  -107.25013     0.00000     0.00000     0.00000
  external pressure =     -107.25 kB  Pullay stress =        0.00 kB


 VOLUME and BASIS-vectors are now :
 -----------------------------------------------------------------------------
  energy-cutoff  :      140.00
  volume of cell :       48.78
      direct lattice vectors                 reciprocal lattice vectors
     0.000000000  2.900000000  2.900000000    -0.172413793  0.172413793  0.172413793
     2.900000000  0.000000000  2.900000000     0.172413793 -0.172413793  0.172413793
     2.900000000  2.900000000  0.000000000     0.172413793  0.172413793 -0.172413793

  length of vectors
     4.101219331  4.101219331  4.101219331     0.298629450  0.298629450  0.298629450


 FORCES acting on ions
    electron-ion (+dipol)            ewald-force                    non-local-force                 convergence-correction
 -----------------------------------------------------------------------------------------------
   0.222E-04 0.222E-04 0.226E-04   0.103E-13 0.934E-14 0.112E-13   0.451E-16 0.694E-17 -.108E-15   0.127E-07 0.127E-07 0.127E-07
   -.222E-04 -.222E-04 -.226E-04   -.104E-13 -.931E-14 -.113E-13   0.382E-16 0.104E-16 0.139E-15   -.127E-07 -.127E-07 -.127E-07
 -----------------------------------------------------------------------------------------------
   -.379E-13 0.393E-13 0.152E-13   -.132E-15 0.271E-16 -.909E-16   0.833E-16 0.173E-16 0.312E-16   -.997E-16 -.279E-16 -.484E-16
 
 
 POSITION                                       TOTAL-FORCE (eV/Angst)
 -----------------------------------------------------------------------------------
      5.07500      5.07500      5.07500         0.000000      0.000000      0.000000
      0.72500      0.72500      0.72500        -0.000000     -0.000000     -0.000000
 -----------------------------------------------------------------------------------
    total drift:                               -0.000000      0.000000      0.000000


--------------------------------------------------------------------------------------------------------



  FREE ENERGIE OF THE ION-ELECTRON SYSTEM (eV)
  ---------------------------------------------------
  free  energy   TOTEN  =       -10.46970384 eV

  energy  without entropy=      -10.46970384  energy(sigma->0) =      -10.46970384
 


--------------------------------------------------------------------------------------------------------


    POTLOK:  cpu time    0.0030: real time    0.0028


--------------------------------------------------------------------------------------------------------


 writing wavefunctions
     LOOP+:  cpu time    6.5700: real time    6.7276
    4ORBIT:  cpu time    0.0000: real time    0.0000

 total amount of memory used by VASP on root node    32217. kBytes
========================================================================

   base      :      30000. kBytes
   nonl-proj :       1604. kBytes
   fftplans  :         48. kBytes
   grid      :        129. kBytes
   one-center:          6. kBytes
   wavefun   :        430. kBytes
 
  
  
 General timing and accounting informations for this job:
 ========================================================
  
                  Total CPU time used (sec):        7.205
                            User time (sec):        6.896
                          System time (sec):        0.309
                         Elapsed time (sec):        7.801
  
                   Maximum memory used (kb):       72840.
                   Average memory used (kb):           0.
  
                          Minor page faults:        90395
                          Major page faults:            0
                 Voluntary context switches:         2817
