FCC Silicon                             
   3.90000000000000     
     0.500000    0.500000    0.000000
     0.000000    0.500000    0.500000
     0.500000    0.000000    0.500000
   Si
     1
Direct
  0.000000  0.000000  0.000000
 
   32   32   32
 -2.4390     -2.1208     -1.2222     0.10142      1.6296      3.1264      4.3893      5.2857      5.7665      5.8614    
  5.6604      5.2888      4.8788      4.5116      4.2228      4.0388      3.9757      4.0388      4.2228      4.5116    
  4.8788      5.2888      5.6604      5.8614      5.7665      5.2857      4.3893      3.1264      1.6296     0.10142    
 -1.2222     -2.1208     -2.1208     -1.5126     -.40313      1.0176      2.5194      3.8819      4.9382      5.5995    
  5.8588      5.7787      5.4692      5.0618      4.6687      4.3380      4.1000      3.9757      3.9757      4.1000    
  4.3380      4.6687      5.0618      5.4692      5.7787      5.8588      5.5995      4.9382      3.8819      2.5194    
  1.0176     -.40313     -1.5126     -2.1208     -1.2222     -.40313     0.79958      2.1815      3.5246      4.6431    
  5.4167      5.8031      5.8338      5.5965      5.2118      4.8032      4.4404      4.1563      3.9758      3.9139    
  3.9758      4.1563      4.4404      4.8032      5.2118      5.5965      5.8338      5.8031      5.4167      4.6431    
  3.5246      2.1815     0.79958     -.40313     -1.2222     -1.5126     0.10142      1.0176      2.1815      3.3959    
  4.4743      5.2774      5.7345      5.8466      5.6753      5.3237      4.9113      4.5260      4.2051      3.9758    
  3.8564      3.8564      3.9758      4.2051      4.5260      4.9113      5.3237      5.6753      5.8466      5.7345    
  5.2774      4.4743      3.3959      2.1815      1.0176     0.10142     -.40313     -.40313      1.6296      2.5194    
  3.5246      4.4743      5.2256      5.6895      5.8414      5.7169      5.3980      4.9914      4.5927      4.2447    
  3.9755      3.8058      3.7479      3.8058      3.9755      4.2447      4.5927      4.9914      5.3980      5.7169    
  5.8414      5.6895      5.2256      4.4743      3.5246      2.5194      1.6296      1.0176     0.79958      1.0176    
  3.1264      3.8819      4.6431      5.2774      5.6895      5.8372      5.7338      5.4393      5.0438      4.6397    
  4.2742      3.9751      3.7638      3.6547      3.6547      3.7638      3.9751      4.2742      4.6397      5.0438    
  5.4393      5.7338      5.8372      5.6895      5.2774      4.6431      3.8819      3.1264      2.5194      2.1815    
  2.1815      2.5194      4.3893      4.9382      5.4167      5.7345      5.8414      5.7338      5.4524      5.0695    
  4.6675      4.2935      3.9744      3.7317      3.5804      3.5290      3.5804      3.7317      3.9744      4.2935    
  4.6675      5.0695      5.4524      5.7338      5.8414      5.7345      5.4167      4.9382      4.3893      3.8819    
  3.5246      3.3959      3.5246      3.8819      5.2857      5.5995      5.8031      5.8466      5.7169      5.4393    
  5.0695      4.6766      4.3030      3.9739      3.7101      3.5267      3.4328      3.4328      3.5267      3.7101    
  3.9739      4.3030      4.6766      5.0695      5.4393      5.7169      5.8466      5.8031      5.5995      5.2857    
  4.9382      4.6431      4.4743      4.4743      4.6431      4.9382      5.7665      5.8588      5.8338      5.6753    
  5.3980      5.0438      4.6675      4.3030      3.9737      3.6993      3.4944      3.3682      3.3256      3.3682    
  3.4944      3.6993      3.9737      4.3030      4.6675      5.0438      5.3980      5.6753      5.8338      5.8588    
  5.7665      5.5995      5.4167      5.2774      5.2256      5.2774      5.4167      5.5995      5.8614      5.7787    
  5.5965      5.3237      4.9914      4.6397      4.2935      3.9739      3.6993      3.4836      3.3358      3.2609    
  3.2609      3.3358      3.4836      3.6993      3.9739      4.2935      4.6397      4.9914      5.3237      5.5965    
  5.7787      5.8614      5.8588      5.8031      5.7345      5.6895      5.6895      5.7345      5.8031      5.8588    
  5.6604      5.4692      5.2118      4.9113      4.5927      4.2742      3.9744      3.7101      3.4944      3.3358    
  3.2393      3.2070      3.2393      3.3358      3.4944      3.7101      3.9744      4.2742      4.5927      4.9113    
  5.2118      5.4692      5.6604      5.7787      5.8338      5.8466      5.8414      5.8372      5.8414      5.8466    
  5.8338      5.7787      5.2888      5.0618      4.8032      4.5260      4.2447      3.9751      3.7317      3.5267    
  3.3682      3.2609      3.2070      3.2070      3.2609      3.3682      3.5267      3.7317      3.9751      4.2447    
  4.5260      4.8032      5.0618      5.2888      5.4692      5.5965      5.6753      5.7169      5.7338      5.7338    
  5.7169      5.6753      5.5965      5.4692      4.8788      4.6687      4.4404      4.2051      3.9755      3.7638    
  3.5804      3.4328      3.3256      3.2609      3.2393      3.2609      3.3256      3.4328      3.5804      3.7638    
  3.9755      4.2051      4.4404      4.6687      4.8788      5.0618      5.2118      5.3237      5.3980      5.4393    
  5.4524      5.4393      5.3980      5.3237      5.2118      5.0618      4.5116      4.3380      4.1563      3.9758    
  3.8058      3.6547      3.5290      3.4328      3.3682      3.3358      3.3358      3.3682      3.4328      3.5290    
  3.6547      3.8058      3.9758      4.1563      4.3381      4.5116      4.6687      4.8032      4.9113      4.9914    
  5.0438      5.0695      5.0695      5.0438      4.9914      4.9113      4.8032      4.6687      4.2228      4.1000    
  3.9758      3.8564      3.7479      3.6547      3.5804      3.5267      3.4944      3.4836      3.4944      3.5267    
  3.5804      3.6547      3.7478      3.8564      3.9758      4.1000      4.2229      4.3381      4.4404      4.5260    
  4.5927      4.6397      4.6675      4.6766      4.6675      4.6397      4.5927      4.5260      4.4404      4.3380    
  4.0388      3.9757      3.9139      3.8564      3.8058      3.7638      3.7317      3.7101      3.6993      3.6993    
  3.7101      3.7317      3.7638      3.8058      3.8564      3.9139      3.9757      4.0388      4.1000      4.1563    
  4.2051      4.2447      4.2742      4.2935      4.3030      4.3030      4.2935      4.2742      4.2447      4.2051    
  4.1563      4.1000      3.9757      3.9757      3.9758      3.9758      3.9755      3.9751      3.9744      3.9739    
  3.9737      3.9739      3.9744      3.9751      3.9755      3.9758      3.9758      3.9757      3.9757      3.9757    
  3.9758      3.9758      3.9755      3.9751      3.9744      3.9739      3.9737      3.9739      3.9744      3.9751    
  3.9755      3.9758      3.9758      3.9757      4.0388      4.1000      4.1563      4.2051      4.2447      4.2742    
  4.2935      4.3030      4.3030      4.2935      4.2742      4.2447      4.2051      4.1563      4.1000      4.0388    
  3.9757      3.9139      3.8564      3.8058      3.7638      3.7317      3.7101      3.6993      3.6993      3.7101    
  3.7317      3.7638      3.8058      3.8564      3.9139      3.9757      4.2228      4.3380      4.4404      4.5260    
  4.5927      4.6397      4.6675      4.6766      4.6675      4.6397      4.5927      4.5260      4.4404      4.3381    
  4.2229      4.1000      3.9758      3.8564      3.7478      3.6547      3.5804      3.5267      3.4944      3.4836    
  3.4944      3.5267      3.5804      3.6547      3.7479      3.8564      3.9758      4.1000      4.5116      4.6687    
  4.8032      4.9113      4.9914      5.0438      5.0695      5.0695      5.0438      4.9914      4.9113      4.8032    
  4.6687      4.5116      4.3381      4.1563      3.9758      3.8058      3.6547      3.5290      3.4328      3.3682    
  3.3358      3.3358      3.3682      3.4328      3.5290      3.6547      3.8058      3.9758      4.1563      4.3380    
  4.8788      5.0618      5.2118      5.3237      5.3980      5.4393      5.4524      5.4393      5.3980      5.3237    
  5.2118      5.0618      4.8788      4.6687      4.4404      4.2051      3.9755      3.7638      3.5804      3.4328    
  3.3256      3.2609      3.2393      3.2609      3.3256      3.4328      3.5804      3.7638      3.9755      4.2051    
  4.4404      4.6687      5.2888      5.4692      5.5965      5.6753      5.7169      5.7338      5.7338      5.7169    
  5.6753      5.5965      5.4692      5.2888      5.0618      4.8032      4.5260      4.2447      3.9751      3.7317    
  3.5267      3.3682      3.2609      3.2070      3.2070      3.2609      3.3682      3.5267      3.7317      3.9751    
  4.2447      4.5260      4.8032      5.0618      5.6604      5.7787      5.8338      5.8466      5.8414      5.8372    
  5.8414      5.8466      5.8338      5.7787      5.6604      5.4692      5.2118      4.9113      4.5927      4.2742    
  3.9744      3.7101      3.4944      3.3358      3.2393      3.2070      3.2393      3.3358      3.4944      3.7101    
  3.9744      4.2742      4.5927      4.9113      5.2118      5.4692      5.8614      5.8588      5.8031      5.7345    
  5.6895      5.6895      5.7345      5.8031      5.8588      5.8614      5.7787      5.5965      5.3237      4.9914    
  4.6397      4.2935      3.9739      3.6993      3.4836      3.3358      3.2609      3.2609      3.3358      3.4836    
  3.6993      3.9739      4.2935      4.6397      4.9914      5.3237      5.5965      5.7787      5.7665      5.5995    
  5.4167      5.2774      5.2256      5.2774      5.4167      5.5995      5.7665      5.8588      5.8338      5.6753    
  5.3980      5.0438      4.6675      4.3030      3.9737      3.6993      3.4944      3.3682      3.3256      3.3682    
  3.4944      3.6993      3.9737      4.3030      4.6675      5.0438      5.3980      5.6753      5.8338      5.8588    
  5.2857      4.9382      4.6431      4.4743      4.4743      4.6431      4.9382      5.2857      5.5995      5.8031    
  5.8466      5.7169      5.4393      5.0695      4.6766      4.3030      3.9739      3.7101      3.5267      3.4328    
  3.4328      3.5267      3.7101      3.9739      4.3030      4.6766      5.0695      5.4393      5.7169      5.8466    
  5.8031      5.5995      4.3893      3.8819      3.5246      3.3959      3.5246      3.8819      4.3893      4.9382    
  5.4167      5.7345      5.8414      5.7338      5.4524      5.0695      4.6675      4.2935      3.9744      3.7317    
  3.5804      3.5290      3.5804      3.7317      3.9744      4.2935      4.6675      5.0695      5.4524      5.7338    
  5.8414      5.7345      5.4167      4.9382      3.1264      2.5194      2.1815      2.1815      2.5194      3.1264    
  3.8819      4.6431      5.2774      5.6895      5.8372      5.7338      5.4393      5.0438      4.6397      4.2742    
  3.9751      3.7638      3.6547      3.6547      3.7638      3.9751      4.2742      4.6397      5.0438      5.4393    
  5.7338      5.8372      5.6895      5.2774      4.6431      3.8819      1.6296      1.0176     0.79958      1.0176    
  1.6296      2.5194      3.5246      4.4743      5.2256      5.6895      5.8414      5.7169      5.3980      4.9914    
  4.5927      4.2447      3.9755      3.8058      3.7479      3.8058      3.9755      4.2447      4.5927      4.9914    
  5.3980      5.7169      5.8414      5.6895      5.2256      4.4743      3.5246      2.5194     0.10142     -.40313    
 -.40313     0.10142      1.0176      2.1815      3.3959      4.4743      5.2774      5.7345      5.8466      5.6753    
  5.3237      4.9113      4.5260      4.2051      3.9758      3.8564      3.8564      3.9758      4.2051      4.5260    
  4.9113      5.3237      5.6753      5.8466      5.7345      5.2774      4.4743      3.3959      2.1815      1.0176    
 -1.2222     -1.5126     -1.2222     -.40313     0.79958      2.1815      3.5246      4.6431      5.4167      5.8031    
  5.8338      5.5965      5.2118      4.8032      4.4404      4.1563      3.9758      3.9139      3.9758      4.1563    
  4.4404      4.8032      5.2118      5.5965      5.8338      5.8031      5.4167      4.6431      3.5246      2.1815    
 0.79958     -.40313     -2.1208     -2.1208     -1.5126     -.40313      1.0176      2.5194      3.8819      4.9382    
  5.5995      5.8588      5.7787      5.4692      5.0618      4.6687      4.3380      4.1000      3.9757      3.9757    
  4.1000      4.3380      4.6687      5.0618      5.4692      5.7787      5.8588      5.5995      4.9382      3.8819    
  2.5194      1.0176     -.40313     -1.5126     -2.1208     -1.5126     -.40313      1.0176      2.5194      3.8819    
  4.9382      5.5995      5.8588      5.7787      5.4692      5.0618      4.6687      4.3380      4.1000      3.9757    
  3.9757      4.1000      4.3380      4.6687      5.0618      5.4692      5.7787      5.8588      5.5995      4.9382    
  3.8819      2.5194      1.0176     -.40313     -1.5126     -2.1208     -1.5126     -.66787     0.57405      2.0037    
  3.3973      4.5635      5.3777      5.7955      5.8474      5.6221      5.2416      4.8326      4.4683      4.1827    
  4.0009      3.9386      4.0009      4.1827      4.4683      4.8326      5.2416      5.6221      5.8474      5.7955    
  5.3777      4.5635      3.3973      2.0037     0.57405     -.66788     -1.5126     -1.8120     -.40313     0.57405    
  1.8194      3.1254      4.2947      5.1792      5.7019      5.8611      5.7187      5.3801      4.9688      4.5809    
  4.2568      4.0245      3.9034      3.9034      4.0245      4.2568      4.5809      4.9688      5.3801      5.7187    
  5.8611      5.7019      5.1792      4.2947      3.1254      1.8194     0.57405     -.40313     -.94026     -.94026    
  1.0176      2.0037      3.1254      4.1971      5.0627      5.6230      5.8475      5.7705      5.4758      5.0745    
  4.6723      4.3193      4.0451      3.8717      3.8124      3.8717      4.0451      4.3193      4.6723      5.0745    
  5.4758      5.7705      5.8475      5.6230      5.0627      4.1971      3.1254      2.0037      1.0176     0.34213    
 0.10192     0.34213      2.5194      3.3973      4.2947      5.0627      5.5926      5.8329      5.7930      5.5335    
  5.1486      4.7406      4.3684      4.0619      3.8446      3.7321      3.7321      3.8446      4.0619      4.3684    
  4.7406      5.1486      5.5335      5.7930      5.8329      5.5926      5.0627      4.2947      3.3973      2.5194    
  1.8201      1.4325      1.4325      1.8201      3.8819      4.5635      5.1792      5.6230      5.8329      5.7989    
  5.5600      5.1918      4.7856      4.4032      4.0745      3.8230      3.6656      3.6121      3.6656      3.8230    
  4.0745      4.4032      4.7856      5.1918      5.5600      5.7989      5.8329      5.6230      5.1792      4.5635    
  3.8819      3.2636      2.8325      2.6780      2.8325      3.2636      4.9382      5.3777      5.7019      5.8475    
  5.7930      5.5600      5.2058      4.8078      4.4239      4.0828      3.8074      3.6150      3.5162      3.5162    
  3.6150      3.8074      4.0828      4.4239      4.8078      5.2058      5.5600      5.7930      5.8475      5.7019    
  5.3777      4.9382      4.4762      4.0936      3.8773      3.8773      4.0936      4.4762      5.5995      5.7955    
  5.8611      5.7705      5.5335      5.1918      4.8078      4.4307      4.0868      3.7980      3.5810      3.4468    
  3.4015      3.4468      3.5810      3.7980      4.0868      4.4307      4.8078      5.1918      5.5335      5.7705    
  5.8611      5.7955      5.5995      5.3294      5.0588      4.8605      4.7879      4.8605      5.0588      5.3294    
  5.8588      5.8474      5.7187      5.4758      5.1486      4.7856      4.4239      4.0868      3.7948      3.5640    
  3.4051      3.3243      3.3243      3.4051      3.5640      3.7948      4.0868      4.4239      4.7856      5.1486    
  5.4758      5.7187      5.8474      5.8588      5.7770      5.6462      5.5190      5.4419      5.4419      5.5190    
  5.6462      5.7770      5.7787      5.6221      5.3801      5.0745      4.7406      4.4032      4.0828      3.7980    
  3.5640      3.3911      3.2856      3.2501      3.2856      3.3911      3.5640      3.7980      4.0828      4.4032    
  4.7406      5.0745      5.3801      5.6221      5.7787      5.8491      5.8516      5.8172      5.7794      5.7636    
  5.7794      5.8172      5.8516      5.8491      5.4692      5.2416      4.9688      4.6723      4.3684      4.0745    
  3.8074      3.5810      3.4051      3.2856      3.2253      3.2253      3.2856      3.4051      3.5810      3.8074    
  4.0745      4.3684      4.6723      4.9688      5.2416      5.4692      5.6350      5.7376      5.7884      5.8063    
  5.8095      5.8095      5.8063      5.7884      5.7376      5.6350      5.0618      4.8326      4.5809      4.3193    
  4.0619      3.8230      3.6150      3.4468      3.3243      3.2501      3.2253      3.2501      3.3243      3.4468    
  3.6150      3.8230      4.0619      4.3193      4.5809      4.8326      5.0618      5.2584      5.4116      5.5184    
  5.5840      5.6177      5.6278      5.6177      5.5840      5.5184      5.4116      5.2584      4.6687      4.4683    
  4.2568      4.0451      3.8446      3.6656      3.5162      3.4015      3.3243      3.2856      3.2856      3.3243    
  3.4015      3.5162      3.6656      3.8446      4.0451      4.2568      4.4683      4.6687      4.8486      5.0013    
  5.1228      5.2110      5.2668      5.2933      5.2933      5.2668      5.2110      5.1228      5.0013      4.8486    
  4.3380      4.1827      4.0245      3.8717      3.7321      3.6121      3.5162      3.4468      3.4051      3.3911    
  3.4051      3.4468      3.5162      3.6121      3.7321      3.8717      4.0245      4.1827      4.3381      4.4828    
  4.6104      4.7164      4.7985      4.8561      4.8900      4.9012      4.8900      4.8561      4.7985      4.7164    
  4.6104      4.4828      4.1000      4.0009      3.9034      3.8124      3.7321      3.6656      3.6150      3.5810    
  3.5640      3.5640      3.5810      3.6150      3.6656      3.7321      3.8124      3.9034      4.0009      4.1000    
  4.1956      4.2829      4.3581      4.4188      4.4640      4.4935      4.5080      4.5080      4.4935      4.4640    
  4.4188      4.3581      4.2829      4.1956      3.9757      3.9386      3.9034      3.8717      3.8446      3.8230    
  3.8074      3.7980      3.7948      3.7980      3.8074      3.8230      3.8446      3.8717      3.9034      3.9386    
  3.9757      4.0127      4.0477      4.0789      4.1048      4.1248      4.1387      4.1467      4.1494      4.1467    
  4.1387      4.1248      4.1048      4.0789      4.0477      4.0127      3.9757      4.0009      4.0245      4.0451    
  4.0619      4.0745      4.0828      4.0868      4.0868      4.0828      4.0745      4.0619      4.0451      4.0245    
  4.0009      3.9757      3.9500      3.9251      3.9019      3.8814      3.8642      3.8507      3.8415      3.8368    
  3.8368      3.8415      3.8507      3.8641      3.8814      3.9019      3.9251      3.9500      4.1000      4.1827    
  4.2568      4.3193      4.3684      4.4032      4.4239      4.4307      4.4239      4.4032      4.3684      4.3193    
  4.2568      4.1827      4.1000      4.0127      3.9251      3.8414      3.7655      3.7005      3.6486      3.6110    
  3.5884      3.5808      3.5884      3.6110      3.6486      3.7005      3.7655      3.8414      3.9251      4.0127    
  4.3380      4.4683      4.5809      4.6723      4.7406      4.7856      4.8078      4.8078      4.7856      4.7406    
  4.6723      4.5809      4.4683      4.3381      4.1956      4.0477      3.9019      3.7655      3.6448      3.5446    
  3.4681      3.4167      3.3910      3.3910      3.4167      3.4681      3.5446      3.6448      3.7655      3.9019    
  4.0477      4.1956      4.6687      4.8326      4.9688      5.0745      5.1486      5.1918      5.2058      5.1918    
  5.1486      5.0745      4.9688      4.8326      4.6687      4.4828      4.2829      4.0789      3.8814      3.7005    
  3.5446      3.4197      3.3292      3.2747      3.2566      3.2747      3.3292      3.4197      3.5446      3.7005    
  3.8814      4.0789      4.2829      4.4828      5.0618      5.2416      5.3801      5.4758      5.5335      5.5600    
  5.5600      5.5335      5.4758      5.3801      5.2416      5.0618      4.8486      4.6104      4.3581      4.1048    
  3.8642      3.6486      3.4681      3.3292      3.2356      3.1887      3.1887      3.2356      3.3292      3.4681    
  3.6486      3.8641      4.1048      4.3581      4.6104      4.8486      5.4692      5.6221      5.7187      5.7705    
  5.7930      5.7989      5.7930      5.7705      5.7187      5.6221      5.4692      5.2584      5.0013      4.7164    
  4.4188      4.1248      3.8507      3.6110      3.4167      3.2747      3.1887      3.1598      3.1887      3.2747    
  3.4167      3.6110      3.8507      4.1248      4.4188      4.7164      5.0013      5.2584      5.7787      5.8474    
  5.8611      5.8475      5.8329      5.8329      5.8475      5.8611      5.8474      5.7787      5.6350      5.4116    
  5.1228      4.7985      4.4640      4.1387      3.8415      3.5884      3.3910      3.2566      3.1887      3.1887    
  3.2566      3.3910      3.5884      3.8415      4.1387      4.4640      4.7985      5.1228      5.4116      5.6350    
  5.8588      5.7955      5.7019      5.6230      5.5926      5.6230      5.7019      5.7955      5.8588      5.8491    
  5.7376      5.5184      5.2110      4.8561      4.4935      4.1467      3.8368      3.5808      3.3910      3.2747    
  3.2356      3.2747      3.3910      3.5808      3.8368      4.1467      4.4935      4.8561      5.2110      5.5184    
  5.7376      5.8491      5.5995      5.3777      5.1792      5.0627      5.0627      5.1792      5.3777      5.5995    
  5.7770      5.8516      5.7884      5.5840      5.2668      4.8900      4.5080      4.1494      3.8368      3.5884    
  3.4167      3.3292      3.3292      3.4167      3.5884      3.8368      4.1494      4.5080      4.8900      5.2668    
  5.5840      5.7884      5.8516      5.7770      4.9382      4.5635      4.2947      4.1971      4.2947      4.5635    
  4.9382      5.3294      5.6462      5.8172      5.8063      5.6177      5.2933      4.9012      4.5080      4.1467    
  3.8415      3.6110      3.4681      3.4197      3.4681      3.6110      3.8415      4.1467      4.5080      4.9012    
  5.2933      5.6177      5.8063      5.8172      5.6462      5.3294      3.8819      3.3973      3.1254      3.1254    
  3.3973      3.8819      4.4762      5.0588      5.5190      5.7794      5.8095      5.6278      5.2933      4.8900    
  4.4935      4.1387      3.8507      3.6486      3.5446      3.5446      3.6486      3.8507      4.1387      4.4935    
  4.8900      5.2933      5.6278      5.8095      5.7794      5.5190      5.0588      4.4762      2.5194      2.0037    
  1.8194      2.0037      2.5194      3.2636      4.0936      4.8605      5.4419      5.7636      5.8095      5.6177    
  5.2668      4.8561      4.4640      4.1248      3.8641      3.7005      3.6448      3.7005      3.8641      4.1248    
  4.4640      4.8561      5.2668      5.6177      5.8095      5.7636      5.4419      4.8606      4.0936      3.2636    
  1.0176     0.57405     0.57405      1.0176      1.8201      2.8325      3.8773      4.7879      5.4419      5.7794    
  5.8063      5.5840      5.2110      4.7985      4.4188      4.1048      3.8814      3.7655      3.7655      3.8814    
  4.1048      4.4188      4.7985      5.2110      5.5840      5.8063      5.7794      5.4419      4.7879      3.8773    
  2.8325      1.8201     -.40313     -.66788     -.40313     0.34213      1.4325      2.6780      3.8773      4.8605    
  5.5190      5.8172      5.7884      5.5184      5.1228      4.7164      4.3581      4.0789      3.9019      3.8414    
  3.9019      4.0789      4.3581      4.7164      5.1228      5.5184      5.7884      5.8172      5.5190      4.8606    
  3.8773      2.6780      1.4325     0.34213     -1.5126     -1.5126     -.94026     0.10192      1.4325      2.8325    
  4.0936      5.0588      5.6462      5.8516      5.7376      5.4116      5.0013      4.6104      4.2829      4.0477    
  3.9251      3.9251      4.0477      4.2829      4.6104      5.0013      5.4116      5.7376      5.8516      5.6462    
  5.0588      4.0936      2.8325      1.4325     0.10192     -.94026     -2.1208     -1.8120     -.94026     0.34213    
  1.8201      3.2636      4.4762      5.3294      5.7770      5.8491      5.6350      5.2584      4.8486      4.4828    
  4.1956      4.0127      3.9500      4.0127      4.1956      4.4828      4.8486      5.2584      5.6350      5.8491    
  5.7770      5.3294      4.4762      3.2636      1.8201     0.34213     -.94026     -1.8120     -1.2222     -.40313    
 0.79958      2.1815      3.5246      4.6431      5.4167      5.8031      5.8338      5.5965      5.2118      4.8032    
  4.4404      4.1563      3.9758      3.9139      3.9758      4.1563      4.4404      4.8032      5.2118      5.5965    
  5.8338      5.8031      5.4167      4.6431      3.5246      2.1815     0.79958     -.40313     -1.2222     -1.5126    
 -.40313     0.57405      1.8194      3.1254      4.2947      5.1792      5.7019      5.8611      5.7187      5.3801    
  4.9688      4.5809      4.2568      4.0245      3.9034      3.9034      4.0245      4.2568      4.5809      4.9688    
  5.3801      5.7187      5.8611      5.7019      5.1792      4.2947      3.1254      1.8194     0.57405     -.40313    
 -.94026     -.94026     0.79958      1.8194      2.9818      4.0965      5.0024      5.5968      5.8471      5.7873    
  5.5015      5.1025      4.6992      4.3446      4.0687      3.8941      3.8344      3.8941      4.0687      4.3446    
  4.6992      5.1025      5.5015      5.7873      5.8472      5.5968      5.0024      4.0965      2.9818      1.8194    
 0.79958     0.10192     -.14601     0.10192      2.1815      3.1254      4.0965      4.9373      5.5314      5.8228    
  5.8184      5.5792      5.2014      4.7920      4.4166      4.1066      3.8862      3.7720      3.7720      3.8862    
  4.1066      4.4166      4.7920      5.2014      5.5792      5.8184      5.8228      5.5314      4.9373      4.0965    
  3.1254      2.1815      1.4325      1.0183      1.0183      1.4325      3.5246      4.2947      5.0024      5.5314    
  5.8117      5.8289      5.6210      5.2652      4.8580      4.4710      4.1366      3.8799      3.7189      3.6640    
  3.7189      3.8799      4.1366      4.4710      4.8580      5.2652      5.6210      5.8289      5.8117      5.5314    
  5.0024      4.2947      3.5246      2.8325      2.3526      2.1809      2.3526      2.8325      4.6431      5.1792    
  5.5968      5.8228      5.8289      5.6339      5.2961      4.8972      4.5071      4.1582      3.8752      3.6767    
  3.5746      3.5746      3.6767      3.8752      4.1582      4.5071      4.8972      5.2961      5.6339      5.8289    
  5.8228      5.5968      5.1792      4.6431      4.0936      3.6445      3.3923      3.3923      3.6445      4.0936    
  5.4167      5.7019      5.8471      5.8184      5.6210      5.2961      4.9102      4.5250      4.1710      3.8720    
  3.6463      3.5063      3.4589      3.5063      3.6463      3.8720      4.1710      4.5250      4.9102      5.2961    
  5.6210      5.8184      5.8472      5.7019      5.4167      5.0588      4.7140      4.4661      4.3761      4.4661    
  4.7140      5.0588      5.8031      5.8611      5.7873      5.5792      5.2652      4.8972      4.5250      4.1753    
  3.8704      3.6280      3.4605      3.3752      3.3752      3.4605      3.6280      3.8704      4.1753      4.5250    
  4.8972      5.2652      5.5792      5.7873      5.8611      5.8031      5.6462      5.4454      5.2641      5.1575    
  5.1575      5.2641      5.4454      5.6462      5.8338      5.7187      5.5015      5.2014      4.8580      4.5071    
  4.1710      3.8704      3.6219      3.4377      3.3247      3.2868      3.3247      3.4377      3.6219      3.8704    
  4.1710      4.5071      4.8580      5.2014      5.5015      5.7187      5.8338      5.8516      5.7990      5.7163    
  5.6454      5.6179      5.6454      5.7163      5.7990      5.8516      5.5965      5.3801      5.1025      4.7920    
  4.4710      4.1582      3.8720      3.6280      3.4377      3.3079      3.2424      3.2424      3.3079      3.4377    
  3.6280      3.8720      4.1582      4.4710      4.7920      5.1025      5.3801      5.5965      5.7376      5.8073    
  5.8242      5.8142      5.8020      5.8020      5.8142      5.8242      5.8073      5.7376      5.2118      4.9688    
  4.6992      4.4166      4.1366      3.8752      3.6463      3.4605      3.3247      3.2424      3.2148      3.2424    
  3.3247      3.4605      3.6463      3.8752      4.1366      4.4166      4.6992      4.9688      5.2118      5.4116    
  5.5572      5.6498      5.6999      5.7219      5.7277      5.7219      5.6999      5.6498      5.5572      5.4116    
  4.8032      4.5809      4.3446      4.1066      3.8799      3.6767      3.5063      3.3752      3.2868      3.2424    
  3.2424      3.2868      3.3752      3.5063      3.6767      3.8799      4.1066      4.3446      4.5809      4.8032    
  5.0013      5.1678      5.2962      5.3850      5.4385      5.4631      5.4631      5.4385      5.3850      5.2962    
  5.1678      5.0013      4.4404      4.2568      4.0687      3.8862      3.7189      3.5746      3.4589      3.3752    
  3.3247      3.3079      3.3247      3.3752      3.4589      3.5746      3.7189      3.8862      4.0687      4.2568    