FCC Silicon                             
   3.90000000000000     
     0.500000    0.500000    0.000000
     0.000000    0.500000    0.500000
     0.500000    0.000000    0.500000
   Si
     1
Direct
  0.000000  0.000000  0.000000
 
   32   32   32
 -.24389860923E+01 -.21207924411E+01 -.12221587694E+01 0.10142447815E+00 0.16296424370E+01
 0.31263851577E+01 0.43893226851E+01 0.52856637521E+01 0.57664925107E+01 0.58614160064E+01
 0.56603678278E+01 0.52888407373E+01 0.48787604791E+01 0.45115621298E+01 0.42228487302E+01
 0.40388198803E+01 0.39756660708E+01 0.40388198803E+01 0.42228487302E+01 0.45115621298E+01
 0.48787604791E+01 0.52888407373E+01 0.56603678278E+01 0.58614160064E+01 0.57664925107E+01
 0.52856637521E+01 0.43893226851E+01 0.31263851577E+01 0.16296424370E+01 0.10142447815E+00
 -.12221587694E+01 -.21207924411E+01 -.21207924411E+01 -.15125901896E+01 -.40312680279E+00
 0.10176327910E+01 0.25194047539E+01 0.38819260783E+01 0.49382362998E+01 0.55995181314E+01
 0.58588367224E+01 0.57786844703E+01 0.54691768958E+01 0.50618426310E+01 0.46686822308E+01
 0.43380487109E+01 0.41000469880E+01 0.39757130351E+01 0.39757121035E+01 0.41000454174E+01
 0.43380482516E+01 0.46686826496E+01 0.50618424789E+01 0.54691762546E+01 0.57786848933E+01
 0.58588385640E+01 0.55995196707E+01 0.49382362820E+01 0.38819255460E+01 0.25194048852E+01
 0.10176325748E+01 -.40312935973E+00 -.15125943394E+01 -.21207945255E+01 -.12221587694E+01
 -.40312680279E+00 0.79958098395E+00 0.21814875360E+01 0.35245694502E+01 0.46431400213E+01
 0.54166931995E+01 0.58031098420E+01 0.58337679016E+01 0.55964717250E+01 0.52117668514E+01
 0.48031962434E+01 0.44403805399E+01 0.41563366361E+01 0.39757949163E+01 0.39139246135E+01
 0.39757941738E+01 0.41563356589E+01 0.44403798148E+01 0.48031959666E+01 0.52117671175E+01
 0.55964726294E+01 0.58337692153E+01 0.58031109961E+01 0.54166936917E+01 0.46431397459E+01
 0.35245685392E+01 0.21814859979E+01 0.79957894848E+00 -.40312889153E+00 -.12221601305E+01
 -.15125943394E+01 0.10142447815E+00 0.10176327910E+01 0.21814875360E+01 0.33958847210E+01
 0.44742621363E+01 0.52774155499E+01 0.57345473196E+01 0.58465646509E+01 0.56752756872E+01
 0.53236858081E+01 0.49112781684E+01 0.45259849396E+01 0.42051440726E+01 0.39757784193E+01
 0.38564480892E+01 0.38564482635E+01 0.39757784057E+01 0.42051432720E+01 0.45259839739E+01
 0.49112783640E+01 0.53236873301E+01 0.56752772267E+01 0.58465651119E+01 0.57345470228E+01
 0.52774151056E+01 0.44742610911E+01 0.33958824254E+01 0.21814848186E+01 0.10176314620E+01
 0.10142483145E+00 -.40312889153E+00 -.40312935973E+00 0.16296424370E+01 0.25194047539E+01
 0.35245694502E+01 0.44742621363E+01 0.52256005521E+01 0.56895313834E+01 0.58413735774E+01
 0.57169402462E+01 0.53980367985E+01 0.49914221370E+01 0.45926517358E+01 0.42447136988E+01
 0.39755393858E+01 0.38057924221E+01 0.37478501070E+01 0.38057921632E+01 0.39755390058E+01
 0.42447133661E+01 0.45926516440E+01 0.49914224962E+01 0.53980375939E+01 0.57169410894E+01
 0.58413739944E+01 0.56895311112E+01 0.52255995048E+01 0.44742601520E+01 0.35245666143E+01
 0.25194017920E+01 0.16296401885E+01 0.10176314620E+01 0.79957894848E+00 0.10176325748E+01
 0.31263851577E+01 0.38819260783E+01 0.46431400213E+01 0.52774155499E+01 0.56895313834E+01
 0.58372492261E+01 0.57338373228E+01 0.54393461687E+01 0.50438462763E+01 0.46397015369E+01
 0.42741967224E+01 0.39750511283E+01 0.37638181689E+01 0.36547345978E+01 0.36547342983E+01
 0.37638176628E+01 0.39750509230E+01 0.42741966163E+01 0.46397009806E+01 0.50438453870E+01
 0.54393457006E+01 0.57338376759E+01 0.58372499687E+01 0.56895316219E+01 0.52774146919E+01
 0.46431378269E+01 0.38819226994E+01 0.31263813247E+01 0.25194017920E+01 0.21814848186E+01
 0.21814859979E+01 0.25194048852E+01 0.43893226851E+01 0.49382362998E+01 0.54166931995E+01
 0.57345473196E+01 0.58413735774E+01 0.57338373228E+01 0.54524450328E+01 0.50695443086E+01
 0.46674809493E+01 0.42935187514E+01 0.39744349637E+01 0.37317175632E+01 0.35803896859E+01
 0.35290307519E+01 0.35803898239E+01 0.37317176648E+01 0.39744346162E+01 0.42935175648E+01
 0.46674790546E+01 0.50695423671E+01 0.54524437607E+01 0.57338369308E+01 0.58413739045E+01
 0.57345477777E+01 0.54166930872E+01 0.49382350162E+01 0.43893201982E+01 0.38819226994E+01
 0.35245666143E+01 0.33958824254E+01 0.35245685392E+01 0.38819255460E+01 0.52856637521E+01
 0.55995181314E+01 0.58031098420E+01 0.58465646509E+01 0.57169402462E+01 0.54393461687E+01
 0.50695443086E+01 0.46766394807E+01 0.43030197422E+01 0.39739166635E+01 0.37101234455E+01
 0.35266747357E+01 0.34328191502E+01 0.34328194968E+01 0.35266754821E+01 0.37101238540E+01
 0.39739159626E+01 0.43030177829E+01 0.46766369028E+01 0.50695419244E+01 0.54393444456E+01
 0.57169392282E+01 0.58465645577E+01 0.58031107027E+01 0.55995192367E+01 0.52856639683E+01
 0.49382350162E+01 0.46431378269E+01 0.44742601520E+01 0.44742610911E+01 0.46431397459E+01
 0.49382362820E+01 0.57664925107E+01 0.58588367224E+01 0.58337679016E+01 0.56752756872E+01
 0.53980367985E+01 0.50438462763E+01 0.46674809493E+01 0.43030197422E+01 0.39737138792E+01
 0.36992917958E+01 0.34943507417E+01 0.33681826328E+01 0.33256385444E+01 0.33681834195E+01
 0.34943518595E+01 0.36992924954E+01 0.39737135566E+01 0.43030182873E+01 0.46674789298E+01
 0.50438443471E+01 0.53980355284E+01 0.56752751149E+01 0.58337678339E+01 0.58588368559E+01
 0.57664924262E+01 0.55995192367E+01 0.54166930872E+01 0.52774146919E+01 0.52255995048E+01
 0.52774151056E+01 0.54166936917E+01 0.55995196707E+01 0.58614160064E+01 0.57786844703E+01
 0.55964717250E+01 0.53236858081E+01 0.49914221370E+01 0.46397015369E+01 0.42935187514E+01
 0.39739166635E+01 0.36992917958E+01 0.34835774617E+01 0.33358183695E+01 0.32609301108E+01
 0.32609305532E+01 0.33358194823E+01 0.34835788564E+01 0.36992930368E+01 0.39739174851E+01
 0.42935188858E+01 0.46397011023E+01 0.49914213947E+01 0.53236850840E+01 0.55964708101E+01
 0.57786827822E+01 0.58614138166E+01 0.58588368559E+01 0.58031107027E+01 0.57345477777E+01
 0.56895316219E+01 0.56895311112E+01 0.57345470228E+01 0.58031109961E+01 0.58588385640E+01
 0.56603678278E+01 0.54691768958E+01 0.52117668514E+01 0.49112781684E+01 0.45926517358E+01
 0.42741967224E+01 0.39744349637E+01 0.37101234455E+01 0.34943507417E+01 0.33358183695E+01
 0.32393298674E+01 0.32069854102E+01 0.32393301686E+01 0.33358190641E+01 0.34943520036E+01
 0.37101253032E+01 0.39744371593E+01 0.42741985448E+01 0.45926525430E+01 0.49112776921E+01
 0.52117651893E+01 0.54691747078E+01 0.56603654209E+01 0.57786827822E+01 0.58337678339E+01
 0.58465645577E+01 0.58413739045E+01 0.58372499687E+01 0.58413739944E+01 0.58465651119E+01
 0.58337692153E+01 0.57786848933E+01 0.52888407373E+01 0.50618426310E+01 0.48031962434E+01
 0.45259849396E+01 0.42447136988E+01 0.39750511283E+01 0.37317175632E+01 0.35266747357E+01
 0.33681826328E+01 0.32609301108E+01 0.32069854102E+01 0.32069850048E+01 0.32609292467E+01
 0.33681820889E+01 0.35266752806E+01 0.37317193522E+01 0.39750536427E+01 0.42447159414E+01
 0.45259859984E+01 0.48031960323E+01 0.50618414090E+01 0.52888391748E+01 0.54691747078E+01
 0.55964708101E+01 0.56752751149E+01 0.57169392282E+01 0.57338369308E+01 0.57338376759E+01
 0.57169410894E+01 0.56752772267E+01 0.55964726294E+01 0.54691762546E+01 0.48787604791E+01
 0.46686822308E+01 0.44403805399E+01 0.42051440726E+01 0.39755393858E+01 0.37638181689E+01
 0.35803896859E+01 0.34328191502E+01 0.33256385444E+01 0.32609305532E+01 0.32393301686E+01
 0.32609292467E+01 0.33256365062E+01 0.34328172229E+01 0.35803886637E+01 0.37638184941E+01
 0.39755410168E+01 0.42051464971E+01 0.44403827913E+01 0.46686836090E+01 0.48787606672E+01
 0.50618414090E+01 0.52117651893E+01 0.53236850840E+01 0.53980355284E+01 0.54393444456E+01
 0.54524437607E+01 0.54393457006E+01 0.53980375939E+01 0.53236873301E+01 0.52117671175E+01
 0.50618424789E+01 0.45115621298E+01 0.43380487109E+01 0.41563366361E+01 0.39757784193E+01
 0.38057924221E+01 0.36547345978E+01 0.35290307519E+01 0.34328194968E+01 0.33681834195E+01
 0.33358194823E+01 0.33358190641E+01 0.33681820889E+01 0.34328172229E+01 0.35290278104E+01
 0.36547318708E+01 0.38057910351E+01 0.39757790084E+01 0.41563388833E+01 0.43380514074E+01
 0.45115641343E+01 0.46686836090E+01 0.48031960323E+01 0.49112776921E+01 0.49914213947E+01
 0.50438443471E+01 0.50695419244E+01 0.50695423671E+01 0.50438453870E+01 0.49914224962E+01
 0.49112783640E+01 0.48031959666E+01 0.46686826496E+01 0.42228487302E+01 0.41000469880E+01
 0.39757949163E+01 0.38564480892E+01 0.37478501070E+01 0.36547342983E+01 0.35803898239E+01
 0.35266754821E+01 0.34943518595E+01 0.34835788564E+01 0.34943520036E+01 0.35266752806E+01
 0.35803886637E+01 0.36547318708E+01 0.37478467845E+01 0.38564449151E+01 0.39757930317E+01
 0.41000471766E+01 0.42228508759E+01 0.43380514074E+01 0.44403827913E+01 0.45259859984E+01
 0.45926525430E+01 0.46397011023E+01 0.46674789298E+01 0.46766369028E+01 0.46674790546E+01
 0.46397009806E+01 0.45926516440E+01 0.45259839739E+01 0.44403798148E+01 0.43380482516E+01
 0.40388198803E+01 0.39757130351E+01 0.39139246135E+01 0.38564482635E+01 0.38057921632E+01
 0.37638176628E+01 0.37317176648E+01 0.37101238540E+01 0.36992924954E+01 0.36992930368E+01
 0.37101253032E+01 0.37317193522E+01 0.37638184941E+01 0.38057910351E+01 0.38564449151E+01
 0.39139202039E+01 0.39757095591E+01 0.40388189418E+01 0.41000471766E+01 0.41563388833E+01
 0.42051464971E+01 0.42447159414E+01 0.42741985448E+01 0.42935188858E+01 0.43030182873E+01
 0.43030177829E+01 0.42935175648E+01 0.42741966163E+01 0.42447133661E+01 0.42051432720E+01
 0.41563356589E+01 0.41000454174E+01 0.39756660708E+01 0.39757121035E+01 0.39757941738E+01
 0.39757784057E+01 0.39755390058E+01 0.39750509230E+01 0.39744346162E+01 0.39739159626E+01
 0.39737135566E+01 0.39739174851E+01 0.39744371593E+01 0.39750536427E+01 0.39755410168E+01
 0.39757790084E+01 0.39757930317E+01 0.39757095591E+01 0.39756629889E+01 0.39757095591E+01
 0.39757930317E+01 0.39757790084E+01 0.39755410168E+01 0.39750536427E+01 0.39744371593E+01
 0.39739174851E+01 0.39737135566E+01 0.39739159626E+01 0.39744346162E+01 0.39750509230E+01
 0.39755390058E+01 0.39757784057E+01 0.39757941738E+01 0.39757121035E+01 0.40388198803E+01
 0.41000454174E+01 0.41563356589E+01 0.42051432720E+01 0.42447133661E+01 0.42741966163E+01
 0.42935175648E+01 0.43030177829E+01 0.43030182873E+01 0.42935188858E+01 0.42741985448E+01
 0.42447159414E+01 0.42051464971E+01 0.41563388833E+01 0.41000471766E+01 0.40388189418E+01
 0.39757095591E+01 0.39139202039E+01 0.38564449151E+01 0.38057910351E+01 0.37638184941E+01
 0.37317193522E+01 0.37101253032E+01 0.36992930368E+01 0.36992924954E+01 0.37101238540E+01
 0.37317176648E+01 0.37638176628E+01 0.38057921632E+01 0.38564482635E+01 0.39139246135E+01
 0.39757130351E+01 0.42228487302E+01 0.43380482516E+01 0.44403798148E+01 0.45259839739E+01
 0.45926516440E+01 0.46397009806E+01 0.46674790546E+01 0.46766369028E+01 0.46674789298E+01
 0.46397011023E+01 0.45926525430E+01 0.45259859984E+01 0.44403827913E+01 0.43380514074E+01
 0.42228508759E+01 0.41000471766E+01 0.39757930317E+01 0.38564449151E+01 0.37478467845E+01
 0.36547318708E+01 0.35803886637E+01 0.35266752806E+01 0.34943520036E+01 0.34835788564E+01
 0.34943518595E+01 0.35266754821E+01 0.35803898239E+01 0.36547342983E+01 0.37478501070E+01
 0.38564480892E+01 0.39757949163E+01 0.41000469880E+01 0.45115621298E+01 0.46686826496E+01
 0.48031959666E+01 0.49112783640E+01 0.49914224962E+01 0.50438453870E+01 0.50695423671E+01
 0.50695419244E+01 0.50438443471E+01 0.49914213947E+01 0.49112776921E+01 0.48031960323E+01
 0.46686836090E+01 0.45115641343E+01 0.43380514074E+01 0.41563388833E+01 0.39757790084E+01
 0.38057910351E+01 0.36547318708E+01 0.35290278104E+01 0.34328172229E+01 0.33681820889E+01
 0.33358190641E+01 0.33358194823E+01 0.33681834195E+01 0.34328194968E+01 0.35290307519E+01
 0.36547345978E+01 0.38057924221E+01 0.39757784193E+01 0.41563366361E+01 0.43380487109E+01
 0.48787604791E+01 0.50618424789E+01 0.52117671175E+01 0.53236873301E+01 0.53980375939E+01
 0.54393457006E+01 0.54524437607E+01 0.54393444456E+01 0.53980355284E+01 0.53236850840E+01
 0.52117651893E+01 0.50618414090E+01 0.48787606672E+01 0.46686836090E+01 0.44403827913E+01
 0.42051464971E+01 0.39755410168E+01 0.37638184941E+01 0.35803886637E+01 0.34328172229E+01
 0.33256365062E+01 0.32609292467E+01 0.32393301686E+01 0.32609305532E+01 0.33256385444E+01
 0.34328191502E+01 0.35803896859E+01 0.37638181689E+01 0.39755393858E+01 0.42051440726E+01
 0.44403805399E+01 0.46686822308E+01 0.52888407373E+01 0.54691762546E+01 0.55964726294E+01
 0.56752772267E+01 0.57169410894E+01 0.57338376759E+01 0.57338369308E+01 0.57169392282E+01
 0.56752751149E+01 0.55964708101E+01 0.54691747078E+01 0.52888391748E+01 0.50618414090E+01
 0.48031960323E+01 0.45259859984E+01 0.42447159414E+01 0.39750536427E+01 0.37317193522E+01
 0.35266752806E+01 0.33681820889E+01 0.32609292467E+01 0.32069850048E+01 0.32069854102E+01
 0.32609301108E+01 0.33681826328E+01 0.35266747357E+01 0.37317175632E+01 0.39750511283E+01
 0.42447136988E+01 0.45259849396E+01 0.48031962434E+01 0.50618426310E+01 0.56603678278E+01
 0.57786848933E+01 0.58337692153E+01 0.58465651119E+01 0.58413739944E+01 0.58372499687E+01
 0.58413739045E+01 0.58465645577E+01 0.58337678339E+01 0.57786827822E+01 0.56603654209E+01
 0.54691747078E+01 0.52117651893E+01 0.49112776921E+01 0.45926525430E+01 0.42741985448E+01
 0.39744371593E+01 0.37101253032E+01 0.34943520036E+01 0.33358190641E+01 0.32393301686E+01
 0.32069854102E+01 0.32393298674E+01 0.33358183695E+01 0.34943507417E+01 0.37101234455E+01
 0.39744349637E+01 0.42741967224E+01 0.45926517358E+01 0.49112781684E+01 0.52117668514E+01
 0.54691768958E+01 0.58614160064E+01 0.58588385640E+01 0.58031109961E+01 0.57345470228E+01
 0.56895311112E+01 0.56895316219E+01 0.57345477777E+01 0.58031107027E+01 0.58588368559E+01
 0.58614138166E+01 0.57786827822E+01 0.55964708101E+01 0.53236850840E+01 0.49914213947E+01
 0.46397011023E+01 0.42935188858E+01 0.39739174851E+01 0.36992930368E+01 0.34835788564E+01
 0.33358194823E+01 0.32609305532E+01 0.32609301108E+01 0.33358183695E+01 0.34835774617E+01
 0.36992917958E+01 0.39739166635E+01 0.42935187514E+01 0.46397015369E+01 0.49914221370E+01
 0.53236858081E+01 0.55964717250E+01 0.57786844703E+01 0.57664925107E+01 0.55995196707E+01
 0.54166936917E+01 0.52774151056E+01 0.52255995048E+01 0.52774146919E+01 0.54166930872E+01
 0.55995192367E+01 0.57664924262E+01 0.58588368559E+01 0.58337678339E+01 0.56752751149E+01
 0.53980355284E+01 0.50438443471E+01 0.46674789298E+01 0.43030182873E+01 0.39737135566E+01
 0.36992924954E+01 0.34943518595E+01 0.33681834195E+01 0.33256385444E+01 0.33681826328E+01
 0.34943507417E+01 0.36992917958E+01 0.39737138792E+01 0.43030197422E+01 0.46674809493E+01
 0.50438462763E+01 0.53980367985E+01 0.56752756872E+01 0.58337679016E+01 0.58588367224E+01
 0.52856637521E+01 0.49382362820E+01 0.46431397459E+01 0.44742610911E+01 0.44742601520E+01
 0.46431378269E+01 0.49382350162E+01 0.52856639683E+01 0.55995192367E+01 0.58031107027E+01
 0.58465645577E+01 0.57169392282E+01 0.54393444456E+01 0.50695419244E+01 0.46766369028E+01
 0.43030177829E+01 0.39739159626E+01 0.37101238540E+01 0.35266754821E+01 0.34328194968E+01
 0.34328191502E+01 0.35266747357E+01 0.37101234455E+01 0.39739166635E+01 0.43030197422E+01
 0.46766394807E+01 0.50695443086E+01 0.54393461687E+01 0.57169402462E+01 0.58465646509E+01
 0.58031098420E+01 0.55995181314E+01 0.43893226851E+01 0.38819255460E+01 0.35245685392E+01
 0.33958824254E+01 0.35245666143E+01 0.38819226994E+01 0.43893201982E+01 0.49382350162E+01
 0.54166930872E+01 0.57345477777E+01 0.58413739045E+01 0.57338369308E+01 0.54524437607E+01
 0.50695423671E+01 0.46674790546E+01 0.42935175648E+01 0.39744346162E+01 0.37317176648E+01
 0.35803898239E+01 0.35290307519E+01 0.35803896859E+01 0.37317175632E+01 0.39744349637E+01
 0.42935187514E+01 0.46674809493E+01 0.50695443086E+01 0.54524450328E+01 0.57338373228E+01
 0.58413735774E+01 0.57345473196E+01 0.54166931995E+01 0.49382362998E+01 0.31263851577E+01
 0.25194048852E+01 0.21814859979E+01 0.21814848186E+01 0.25194017920E+01 0.31263813247E+01
 0.38819226994E+01 0.46431378269E+01 0.52774146919E+01 0.56895316219E+01 0.58372499687E+01
 0.57338376759E+01 0.54393457006E+01 0.50438453870E+01 0.46397009806E+01 0.42741966163E+01
 0.39750509230E+01 0.37638176628E+01 0.36547342983E+01 0.36547345978E+01 0.37638181689E+01
 0.39750511283E+01 0.42741967224E+01 0.46397015369E+01 0.50438462763E+01 0.54393461687E+01
 0.57338373228E+01 0.58372492261E+01 0.56895313834E+01 0.52774155499E+01 0.46431400213E+01
 0.38819260783E+01 0.16296424370E+01 0.10176325748E+01 0.79957894848E+00 0.10176314620E+01
 0.16296401885E+01 0.25194017920E+01 0.35245666143E+01 0.44742601520E+01 0.52255995048E+01
 0.56895311112E+01 0.58413739944E+01 0.57169410894E+01 0.53980375939E+01 0.49914224962E+01
 0.45926516440E+01 0.42447133661E+01 0.39755390058E+01 0.38057921632E+01 0.37478501070E+01
 0.38057924221E+01 0.39755393858E+01 0.42447136988E+01 0.45926517358E+01 0.49914221370E+01
 0.53980367985E+01 0.57169402462E+01 0.58413735774E+01 0.56895313834E+01 0.52256005521E+01
 0.44742621363E+01 0.35245694502E+01 0.25194047539E+01 0.10142447815E+00 -.40312935973E+00
 -.40312889153E+00 0.10142483145E+00 0.10176314620E+01 0.21814848186E+01 0.33958824254E+01
 0.44742610911E+01 0.52774151056E+01 0.57345470228E+01 0.58465651119E+01 0.56752772267E+01
 0.53236873301E+01 0.49112783640E+01 0.45259839739E+01 0.42051432720E+01 0.39757784057E+01
 0.38564482635E+01 0.38564480892E+01 0.39757784193E+01 0.42051440726E+01 0.45259849396E+01
 0.49112781684E+01 0.53236858081E+01 0.56752756872E+01 0.58465646509E+01 0.57345473196E+01
 0.52774155499E+01 0.44742621363E+01 0.33958847210E+01 0.21814875360E+01 0.10176327910E+01
 -.12221587694E+01 -.15125943394E+01 -.12221601305E+01 -.40312889153E+00 0.79957894848E+00
 0.21814859979E+01 0.35245685392E+01 0.46431397459E+01 0.54166936917E+01 0.58031109961E+01
 0.58337692153E+01 0.55964726294E+01 0.52117671175E+01 0.48031959666E+01 0.44403798148E+01
 0.41563356589E+01 0.39757941738E+01 0.39139246135E+01 0.39757949163E+01 0.41563366361E+01
 0.44403805399E+01 0.48031962434E+01 0.52117668514E+01 0.55964717250E+01 0.58337679016E+01
 0.58031098420E+01 0.54166931995E+01 0.46431400213E+01 0.35245694502E+01 0.21814875360E+01
 0.79958098395E+00 -.40312680279E+00 -.21207924411E+01 -.21207945255E+01 -.15125943394E+01
 -.40312935973E+00 0.10176325748E+01 0.25194048852E+01 0.38819255460E+01 0.49382362820E+01
 0.55995196707E+01 0.58588385640E+01 0.57786848933E+01 0.54691762546E+01 0.50618424789E+01
 0.46686826496E+01 0.43380482516E+01 0.41000454174E+01 0.39757121035E+01 0.39757130351E+01
 0.41000469880E+01 0.43380487109E+01 0.46686822308E+01 0.50618426310E+01 0.54691768958E+01
 0.57786844703E+01 0.58588367224E+01 0.55995181314E+01 0.49382362998E+01 0.38819260783E+01
 0.25194047539E+01 0.10176327910E+01 -.40312680279E+00 -.15125901896E+01 -.21207925096E+01
 -.15125903005E+01 -.40312686811E+00 0.10176327738E+01 0.25194047298E+01 0.38819260581E+01
 0.49382363303E+01 0.55995181810E+01 0.58588367231E+01 0.57786844411E+01 0.54691769031E+01
 0.50618426603E+01 0.46686822218E+01 0.43380486815E+01 0.41000469993E+01 0.39757130689E+01
 0.39757120979E+01 0.41000453906E+01 0.43380482654E+01 0.46686826860E+01 0.50618424758E+01
 0.54691762287E+01 0.57786849045E+01 0.58588385936E+01 0.55995196605E+01 0.49382362583E+01
 0.38819255792E+01 0.25194049602E+01 0.10176326220E+01 -.40312934086E+00 -.15125943088E+01
 -.21207945149E+01 -.15125903005E+01 -.66787187525E+00 0.57405065262E+00 0.20037283295E+01
 0.33972894551E+01 0.45635192707E+01 0.53777346624E+01 0.57954525022E+01 0.58473975025E+01
 0.56220632049E+01 0.52416482714E+01 0.48325703639E+01 0.44682984187E+01 0.41826744174E+01
 0.40009452121E+01 0.39386367319E+01 0.40009443180E+01 0.41826731772E+01 0.44682972926E+01
 0.48325696401E+01 0.52416484014E+01 0.56220645417E+01 0.58473994848E+01 0.57954540081E+01
 0.53777352693E+01 0.45635196877E+01 0.33972899082E+01 0.20037274194E+01 0.57404688028E+00
 -.66787778053E+00 -.15125948844E+01 -.18119567632E+01 -.40312686811E+00 0.57405065262E+00
 0.18193626950E+01 0.31253615419E+01 0.42947209699E+01 0.51791668893E+01 0.57018812165E+01
 0.58610720620E+01 0.57187013124E+01 0.53800998440E+01 0.49688408363E+01 0.45809185950E+01
 0.42567591775E+01 0.40244549388E+01 0.39034199723E+01 0.39034200538E+01 0.40244546150E+01
 0.42567578322E+01 0.45809170506E+01 0.49688408358E+01 0.53801018228E+01 0.57187037080E+01
 0.58610732039E+01 0.57018812864E+01 0.51791669659E+01 0.42947208596E+01 0.31253599020E+01
 0.18193591136E+01 0.57404669935E+00 -.40312944854E+00 -.94026286841E+00 -.94026206137E+00
 0.10176327738E+01 0.20037283295E+01 0.31253615419E+01 0.41971476889E+01 0.50627488831E+01
 0.56230111023E+01 0.58475197103E+01 0.57705475354E+01 0.54758023176E+01 0.50745305916E+01
 0.46722683145E+01 0.43192884869E+01 0.40450772359E+01 0.38716764111E+01 0.38124050601E+01
 0.38716758671E+01 0.40450765183E+01 0.43192880115E+01 0.46722683903E+01 0.50745314748E+01
 0.54758039390E+01 0.57705492321E+01 0.58475205266E+01 0.56230105778E+01 0.50627471539E+01
 0.41971451552E+01 0.31253588258E+01 0.20037261393E+01 0.10176316324E+01 0.34212542410E+00
 0.10191760841E+00 0.34212572165E+00 0.25194047298E+01 0.33972894551E+01 0.42947209699E+01
 0.50627488831E+01 0.55925569941E+01 0.58328895314E+01 0.57930176680E+01 0.55335140104E+01
 0.51486074361E+01 0.47405742359E+01 0.43683688238E+01 0.40619247229E+01 0.38446159485E+01
 0.37321062008E+01 0.37321056810E+01 0.38446150776E+01 0.40619244621E+01 0.43683691178E+01
 0.47405744357E+01 0.51486076901E+01 0.55335149414E+01 0.57930190714E+01 0.58328901615E+01
 0.55925560839E+01 0.50627469841E+01 0.42947188937E+01 0.33972873661E+01 0.25194023391E+01
 0.18200629113E+01 0.14324905847E+01 0.14324915156E+01 0.18200651312E+01 0.38819260581E+01
 0.45635192707E+01 0.51791668893E+01 0.56230111023E+01 0.58328895314E+01 0.57988719704E+01
 0.55600275103E+01 0.51917596115E+01 0.47855711130E+01 0.44032243459E+01 0.40745158988E+01
 0.38230403197E+01 0.36656421261E+01 0.36121179427E+01 0.36656418846E+01 0.38230399962E+01
 0.40745155013E+01 0.44032237559E+01 0.47855704068E+01 0.51917591823E+01 0.55600276484E+01
 0.57988726519E+01 0.58328904786E+01 0.56230118027E+01 0.51791666621E+01 0.45635175307E+01
 0.38819229823E+01 0.32635773775E+01 0.28324872886E+01 0.26779594900E+01 0.28324893972E+01
 0.32635806957E+01 0.49382363303E+01 0.53777346624E+01 0.57018812165E+01 0.58475197103E+01
 0.57930176680E+01 0.55600275103E+01 0.52058394247E+01 0.48077995211E+01 0.44238923339E+01
 0.40827604058E+01 0.38074159808E+01 0.36149524292E+01 0.35161750884E+01 0.35161752660E+01
 0.36149527301E+01 0.38074159414E+01 0.40827596146E+01 0.44238908336E+01 0.48077977510E+01
 0.52058380216E+01 0.55600269660E+01 0.57930181965E+01 0.58475211152E+01 0.57018826641E+01
 0.53777352268E+01 0.49382355789E+01 0.44761674390E+01 0.40935579406E+01 0.38773017094E+01
 0.38773023372E+01 0.40935594961E+01 0.44761690718E+01 0.55995181810E+01 0.57954525022E+01
 0.58610720620E+01 0.57705475354E+01 0.55335140104E+01 0.51917596115E+01 0.48077995211E+01
 0.44307214144E+01 0.40868046802E+01 0.37979768123E+01 0.35809678467E+01 0.34468103048E+01
 0.34014750651E+01 0.34468110179E+01 0.35809687203E+01 0.37979770362E+01 0.40868037448E+01
 0.44307195286E+01 0.48077974300E+01 0.51917579817E+01 0.55335131908E+01 0.57705475786E+01
 0.58610731521E+01 0.57954543516E+01 0.55995199522E+01 0.53294473748E+01 0.50588297074E+01
 0.48605488877E+01 0.47879398613E+01 0.48605494453E+01 0.50588299654E+01 0.53294465460E+01
 0.58588367231E+01 0.58473975025E+01 0.57187013124E+01 0.54758023176E+01 0.51486074361E+01
 0.47855711130E+01 0.44238923339E+01 0.40868046802E+01 0.37948219017E+01 0.35639680667E+01
 0.34050617281E+01 0.33242771775E+01 0.33242776944E+01 0.34050629502E+01 0.35639692370E+01
 0.37948224647E+01 0.40868044480E+01 0.44238913969E+01 0.47855697636E+01 0.51486061486E+01
 0.54758017856E+01 0.57187016652E+01 0.58473983556E+01 0.58588374433E+01 0.57769868718E+01
 0.56461695618E+01 0.55190067201E+01 0.54418876976E+01 0.54418876753E+01 0.55190067494E+01
 0.56461695779E+01 0.57769866293E+01 0.57786844411E+01 0.56220632049E+01 0.53800998440E+01
 0.50745305916E+01 0.47405742359E+01 0.44032243459E+01 0.40827604058E+01 0.37979768123E+01
 0.35639680667E+01 0.33911477144E+01 0.32855817403E+01 0.32501279853E+01 0.32855822976E+01
 0.33911487876E+01 0.35639695443E+01 0.37979783460E+01 0.40827615558E+01 0.44032247488E+01
 0.47405741746E+01 0.50745303977E+01 0.53800997362E+01 0.56220626326E+01 0.57786828974E+01
 0.58490826803E+01 0.58516255605E+01 0.58172293054E+01 0.57793834800E+01 0.57635999656E+01
 0.57793832218E+01 0.58172295873E+01 0.58516269686E+01 0.58490846687E+01 0.54691769031E+01
 0.52416482714E+01 0.49688408363E+01 0.46722683145E+01 0.43683688238E+01 0.40745158988E+01
 0.38074159808E+01 0.35809678467E+01 0.34050617281E+01 0.32855817403E+01 0.32253465365E+01
 0.32253464200E+01 0.32855817158E+01 0.34050623144E+01 0.35809693597E+01 0.38074181453E+01
 0.40745182591E+01 0.43683706939E+01 0.46722692589E+01 0.49688404609E+01 0.52416466130E+01
 0.54691746837E+01 0.56349631518E+01 0.57375550476E+01 0.57884235309E+01 0.58062622306E+01
 0.58095289503E+01 0.58095293786E+01 0.58062633763E+01 0.57884252171E+01 0.57375571169E+01
 0.56349654775E+01 0.50618426603E+01 0.48325703639E+01 0.45809185950E+01 0.43192884869E+01
 0.40619247229E+01 0.38230403197E+01 0.36149524292E+01 0.34468103048E+01 0.33242771775E+01
 0.32501279853E+01 0.32253464200E+01 0.32501272042E+01 0.33242760425E+01 0.34468095890E+01
 0.36149529368E+01 0.38230422180E+01 0.40619273383E+01 0.43192905801E+01 0.45809193103E+01
 0.48325699136E+01 0.50618414813E+01 0.52584208608E+01 0.54116226252E+01 0.55183801929E+01
 0.55839639717E+01 0.56176809134E+01 0.56278289631E+01 0.56176826165E+01 0.55839664890E+01
 0.55183824695E+01 0.54116243202E+01 0.52584222777E+01 0.46686822218E+01 0.44682984187E+01
 0.42567591775E+01 0.40450772359E+01 0.38446159485E+01 0.36656421261E+01 0.35161750884E+01
 0.34014750651E+01 0.33242776944E+01 0.32855822976E+01 0.32855817158E+01 0.33242760425E+01
 0.34014727612E+01 0.35161728773E+01 0.36656408908E+01 0.38446161479E+01 0.40450787501E+01
 0.42567614124E+01 0.44683005524E+01 0.46686836916E+01 0.48485830966E+01 0.50012678791E+01
 0.51228251149E+01 0.52110136386E+01 0.52667573041E+01 0.52933274837E+01 0.52933282009E+01
 0.52667592418E+01 0.52110161493E+01 0.51228273510E+01 0.50012689928E+01 0.48485827501E+01
 0.43380486815E+01 0.41826744174E+01 0.40244549388E+01 0.38716764111E+01 0.37321062008E+01
 0.36121179427E+01 0.35161752660E+01 0.34468110179E+01 0.34050629502E+01 0.33911487876E+01
 0.34050623144E+01 0.34468095890E+01 0.35161728773E+01 0.36121147644E+01 0.37321031509E+01
 0.38716747595E+01 0.40244554636E+01 0.41826767826E+01 0.43380515478E+01 0.44827711431E+01
 0.46103875301E+01 0.47164056911E+01 0.47984747464E+01 0.48561188151E+01 0.48900422369E+01
 0.49012082341E+01 0.48900429181E+01 0.48561197798E+01 0.47984754865E+01 0.47164057334E+01
 0.46103865757E+01 0.44827690162E+01 0.41000469993E+01 0.40009452121E+01 0.39034199723E+01
 0.38124050601E+01 0.37321056810E+01 0.36656418846E+01 0.36149527301E+01 0.35809687203E+01
 0.35639692370E+01 0.35639695443E+01 0.35809693597E+01 0.36149529368E+01 0.36656408908E+01
 0.37321031509E+01 0.38124015404E+01 0.39034166812E+01 0.40009433654E+01 0.41000472626E+01
 0.41956016203E+01 0.42828860899E+01 0.43581248025E+01 0.44188461951E+01 0.44639583793E+01
 0.44934813141E+01 0.45079924223E+01 0.45079923157E+01 0.44934808502E+01 0.44639572474E+01
 0.44188441465E+01 0.43581219771E+01 0.42828831201E+01 0.41955995249E+01 0.39757130689E+01
 0.39386367319E+01 0.39034200538E+01 0.38716758671E+01 0.38446150776E+01 0.38230399962E+01
 0.38074159414E+01 0.37979770362E+01 0.37948224647E+01 0.37979783460E+01 0.38074181453E+01
 0.38230422180E+01 0.38446161479E+01 0.38716747595E+01 0.39034166812E+01 0.39386323481E+01
 0.39757095981E+01 0.40127426043E+01 0.40477393924E+01 0.40788901599E+01 0.41048293392E+01
 0.41248059467E+01 0.41386844044E+01 0.41467496466E+01 0.41493814242E+01 0.41467482923E+01
 0.41386821103E+01 0.41248031115E+01 0.41048262843E+01 0.40788874087E+01 0.40477380562E+01
 0.40127437167E+01 0.39757120979E+01 0.40009443180E+01 0.40244546150E+01 0.40450765183E+01
 0.40619244621E+01 0.40745155013E+01 0.40827596146E+01 0.40868037448E+01 0.40868044480E+01
 0.40827615558E+01 0.40745182591E+01 0.40619273383E+01 0.40450787501E+01 0.40244554636E+01
 0.40009433654E+01 0.39757095981E+01 0.39500213221E+01 0.39250813435E+01 0.39019262855E+01
 0.38813953110E+01 0.38641502005E+01 0.38507148330E+01 0.38415026964E+01 0.38368147795E+01
 0.38368139575E+01 0.38415005742E+01 0.38507123022E+01 0.38641483364E+01 0.38813949403E+01
 0.39019277287E+01 0.39250841678E+01 0.39500245400E+01 0.41000453906E+01 0.41826731772E+01
 0.42567578322E+01 0.43192880115E+01 0.43683691178E+01 0.44032237559E+01 0.44238908336E+01
 0.44307195286E+01 0.44238913969E+01 0.44032247488E+01 0.43683706939E+01 0.43192905801E+01
 0.42567614124E+01 0.41826767826E+01 0.41000472626E+01 0.40127426043E+01 0.39250813435E+01
 0.38413704062E+01 0.37654759601E+01 0.37004958085E+01 0.36485950819E+01 0.36110385705E+01
 0.35883972845E+01 0.35808420061E+01 0.35883965712E+01 0.36110375694E+01 0.36485946905E+01
 0.37004970252E+01 0.37654792073E+01 0.38413747676E+01 0.39250849194E+01 0.40127436558E+01
 0.43380482654E+01 0.44682972926E+01 0.45809170506E+01 0.46722683903E+01 0.47405744357E+01
 0.47855704068E+01 0.48077977510E+01 0.48077974300E+01 0.47855697636E+01 0.47405741746E+01
 0.46722692589E+01 0.45809193103E+01 0.44683005524E+01 0.43380515478E+01 0.41956016203E+01
 0.40477393924E+01 0.39019262855E+01 0.37654759601E+01 0.36447558580E+01 0.35445981475E+01
 0.34680800722E+01 0.34167256538E+01 0.33910240072E+01 0.33910241035E+01 0.34167261583E+01
 0.34680814107E+01 0.35446005425E+01 0.36447590055E+01 0.37654789549E+01 0.39019281107E+01