    1    1    1    1
  0.1482975E+02  0.2757716E-09  0.2757716E-09  0.2757716E-09  0.5000000E-15
  1.000000000000000E-004
  CAR 
 FCC Silicon                             
      4    600     16
 
  0.0000000E+00  0.0000000E+00  0.0000000E+00  0.1666667E-02
    1       -4.380005   1.000000
    2       20.695967   0.000000
    3       20.695968   0.000000
    4       20.695968   0.000000
    5       21.681653   0.000000
    6       21.681653   0.000000
    7       21.681653   0.000000
    8       26.953997   0.000000
    9       28.350855   0.000000
   10       28.350855   0.000000
   11       31.696769   0.000000
   12       34.859143   0.000000
   13       34.859143   0.000000
   14       34.859143   0.000000
   15       41.988914   0.000000
   16       62.240151   0.000000
 
  0.5050505E-02  0.0000000E+00  0.5050505E-02  0.1666667E-02
    1       -4.379036   1.000000
    2       20.671360   0.000000
    3       20.671361   0.000000
    4       20.693554   0.000000
    5       21.675265   0.000000
    6       21.707487   0.000000
    7       21.707487   0.000000
    8       26.962349   0.000000
    9       28.339836   0.000000
   10       28.351733   0.000000
   11       31.695402   0.000000
   12       34.860533   0.000000
   13       34.860533   0.000000
   14       34.871837   0.000000
   15       41.994876   0.000000
   16       62.228173   0.000000
 
  0.1010101E-01  0.0000000E+00  0.1010101E-01  0.1666667E-02
    1       -4.376117   1.000000
    2       20.604009   0.000000
    3       20.604009   0.000000
    4       20.686316   0.000000
    5       21.656221   0.000000
    6       21.778511   0.000000
    7       21.778511   0.000000
    8       26.987283   0.000000
    9       28.306876   0.000000
   10       28.354368   0.000000
   11       31.691715   0.000000
   12       34.864704   0.000000
   13       34.864704   0.000000
   14       34.909388   0.000000
   15       42.012779   0.000000
   16       62.201144   0.000000
 
  0.1515152E-01  0.0000000E+00  0.1515152E-01  0.1666667E-02
    1       -4.371249   1.000000
    2       20.507097   0.000000
    3       20.507098   0.000000
    4       20.674280   0.000000
    5       21.624879   0.000000
    6       21.881543   0.000000
    7       21.881543   0.000000
    8       27.028442   0.000000
    9       28.252264   0.000000
   10       28.358759   0.000000
   11       31.686857   0.000000
   12       34.871658   0.000000
   13       34.871658   0.000000
   14       34.970283   0.000000
   15       42.042671   0.000000
   16       62.128046   0.000000
 
  0.2020202E-01  0.0000000E+00  0.2020202E-01  0.1666667E-02
    1       -4.364435   1.000000
    2       20.392034   0.000000
    3       20.392035   0.000000
    4       20.657463   0.000000
    5       21.581803   0.000000
    6       22.005166   0.000000
    7       22.005166   0.000000
    8       27.085260   0.000000
    9       28.176257   0.000000
   10       28.364905   0.000000
   11       31.682451   0.000000
   12       34.881396   0.000000
   13       34.881396   0.000000
   14       35.052190   0.000000
   15       42.084612   0.000000
   16       62.043198   0.000000
 
  0.2525253E-01  0.0000000E+00  0.2525253E-01  0.1666667E-02
    1       -4.355676   1.000000
    2       20.266237   0.000000
    3       20.266237   0.000000
    4       20.635957   0.000000
    5       21.527713   0.000000
    6       22.141918   0.000000
    7       22.141918   0.000000
    8       27.157001   0.000000
    9       28.080075   0.000000
   10       28.372776   0.000000
   11       31.680367   0.000000
   12       34.893919   0.000000
   13       34.893919   0.000000
   14       35.152489   0.000000
   15       42.138732   0.000000
   16       61.932720   0.000000
 
  0.3030303E-01  0.0000000E+00  0.3030303E-01  0.1666667E-02
    1       -4.344959   1.000000
    2       20.134125   0.000000
    3       20.134125   0.000000
    4       20.609827   0.000000
    5       21.463476   0.000000
    6       22.287456   0.000000
    7       22.287457   0.000000
    8       27.242834   0.000000
    9       27.964484   0.000000
   10       28.382430   0.000000
   11       31.682339   0.000000
   12       34.909252   0.000000
   13       34.909252   0.000000
   14       35.268219   0.000000
   15       42.205139   0.000000
   16       61.804667   0.000000
 
  0.3535354E-01  0.0000000E+00  0.3535354E-01  0.1666667E-02
    1       -4.332293   1.000000
    2       19.998325   0.000000
    3       19.998325   0.000000
    4       20.579144   0.000000
    5       21.390000   0.000000
    6       22.439101   0.000000
    7       22.439101   0.000000
    8       27.341832   0.000000
    9       27.830683   0.000000
   10       28.393835   0.000000
   11       31.689842   0.000000
   12       34.927394   0.000000
   13       34.927394   0.000000
   14       35.396466   0.000000
   15       42.283958   0.000000
   16       61.659433   0.000000
 
  0.4040404E-01  0.0000000E+00  0.4040404E-01  0.1666667E-02
    1       -4.317678   1.000000
    2       19.860442   0.000000
    3       19.860443   0.000000
    4       20.543998   0.000000
    5       21.308230   0.000000
    6       22.595233   0.000000
    7       22.595234   0.000000
    8       27.453049   0.000000
    9       27.680055   0.000000
   10       28.406992   0.000000
   11       31.703983   0.000000
   12       34.948355   0.000000
   13       34.948355   0.000000
   14       35.534509   0.000000
   15       42.375318   0.000000
   16       61.498185   0.000000
 
  0.4545455E-01  0.0000000E+00  0.4545455E-01  0.1666667E-02
    1       -4.301115   1.000000
    2       19.721497   0.000000
    3       19.721497   0.000000
    4       20.504488   0.000000
    5       21.219101   0.000000
    6       22.754819   0.000000
    7       22.754820   0.000000
    8       27.514099   0.000000
    9       27.575551   0.000000
   10       28.421897   0.000000
   11       31.725492   0.000000
   12       34.972148   0.000000
   13       34.972148   0.000000
   14       35.679885   0.000000
   15       42.479344   0.000000
   16       61.322779   0.000000
 
  0.5050505E-01  0.0000000E+00  0.5050505E-01  0.1666667E-02
    1       -4.282604   1.000000
    2       19.582161   0.000000
    3       19.582162   0.000000
    4       20.460721   0.000000
    5       21.123513   0.000000
    6       22.917170   0.000000
    7       22.917170   0.000000
    8       27.334369   0.000000
    9       27.708436   0.000000
   10       28.438548   0.000000
   11       31.754765   0.000000
   12       34.998785   0.000000
   13       34.998785   0.000000
   14       35.830421   0.000000
   15       42.596141   0.000000
   16       61.134869   0.000000
 
  0.5555556E-01  0.0000000E+00  0.5555556E-01  0.1666667E-02
    1       -4.262146   1.000000
    2       19.442895   0.000000
    3       19.442896   0.000000
    4       20.412808   0.000000
    5       21.022313   0.000000
    6       23.081807   0.000000
    7       23.081807   0.000000
    8       27.142411   0.000000
    9       27.850858   0.000000
   10       28.456944   0.000000
   11       31.791928   0.000000
   12       35.028283   0.000000
   13       35.028283   0.000000
   14       35.984247   0.000000
   15       42.725783   0.000000
   16       60.935982   0.000000
 
  0.6060606E-01  0.0000000E+00  0.6060606E-01  0.1666667E-02
    1       -4.239745   1.000000
    2       19.304023   0.000000
    3       19.304024   0.000000
    4       20.360851   0.000000
    5       20.916283   0.000000
    6       23.248368   0.000000
    7       23.248368   0.000000
    8       26.939681   0.000000
    9       28.002033   0.000000
   10       28.477078   0.000000
   11       31.836908   0.000000
   12       35.060649   0.000000
   13       35.060649   0.000000
   14       36.139771   0.000000
   15       42.868308   0.000000
   16       60.726316   0.000000
 
  0.6565657E-01  0.0000000E+00  0.6565657E-01  0.1666667E-02
    1       -4.215404   1.000000
    2       19.165783   0.000000
    3       19.165783   0.000000
    4       20.304993   0.000000
    5       20.806138   0.000000
    6       23.416627   0.000000
    7       23.416628   0.000000
    8       26.727659   0.000000
    9       28.161247   0.000000
   10       28.498954   0.000000
   11       31.889501   0.000000
   12       35.095919   0.000000
   13       35.095919   0.000000
   14       36.295680   0.000000
   15       43.023704   0.000000
   16       60.509616   0.000000
 
  0.7070707E-01  0.0000000E+00  0.7070707E-01  0.1666667E-02
    1       -4.189120   1.000000
    2       19.028349   0.000000
    3       19.028349   0.000000
    4       20.245335   0.000000
    5       20.692522   0.000000
    6       23.586368   0.000000
    7       23.586368   0.000000
    8       26.507611   0.000000
    9       28.327853   0.000000
   10       28.522565   0.000000
   11       31.949418   0.000000
   12       35.134105   0.000000
   13       35.134105   0.000000
   14       36.450893   0.000000
   15       43.191908   0.000000
   16       60.285785   0.000000
 
  0.7575758E-01  0.0000000E+00  0.7575758E-01  0.1666667E-02
    1       -4.160891   1.000000
    2       18.891857   0.000000
    3       18.891857   0.000000
    4       20.181987   0.000000
    5       20.576014   0.000000
    6       23.757430   0.000000
    7       23.757430   0.000000
    8       26.280724   0.000000
    9       28.501274   0.000000
   10       28.547908   0.000000
   11       32.016320   0.000000
   12       35.175229   0.000000
   13       35.175229   0.000000
   14       36.604550   0.000000
   15       43.372797   0.000000
   16       60.055817   0.000000
 
  0.8080808E-01  0.0000000E+00  0.8080808E-01  0.1666667E-02
    1       -4.130718   1.000000
    2       18.756412   0.000000
    3       18.756412   0.000000
    4       20.115051   0.000000
    5       20.457128   0.000000
    6       23.929678   0.000000
    7       23.929678   0.000000
    8       26.048074   0.000000
    9       28.574979   0.000000
   10       28.680992   0.000000
   11       32.089851   0.000000
   12       35.219312   0.000000
   13       35.219312   0.000000
   14       36.755992   0.000000
   15       43.566185   0.000000
   16       59.820588   0.000000
 
  0.8585859E-01  0.0000000E+00  0.8585859E-01  0.1666667E-02
    1       -4.098602   1.000000
    2       18.622097   0.000000
    3       18.622097   0.000000
    4       20.044629   0.000000
    5       20.336323   0.000000
    6       24.103000   0.000000
    7       24.103000   0.000000
    8       25.810633   0.000000
    9       28.603774   0.000000
   10       28.866551   0.000000
   11       32.169650   0.000000
   12       35.266381   0.000000
   13       35.266381   0.000000
   14       36.904733   0.000000
   15       43.771827   0.000000
   16       59.580862   0.000000
 
  0.9090909E-01  0.0000000E+00  0.9090909E-01  0.1666667E-02
    1       -4.064544   1.000000
    2       18.488980   0.000000
    3       18.488980   0.000000
    4       19.970809   0.000000
    5       20.214002   0.000000
    6       24.277295   0.000000
    7       24.277296   0.000000
    8       25.569276   0.000000
    9       28.634289   0.000000
   10       29.057543   0.000000
   11       32.255363   0.000000
   12       35.316461   0.000000
   13       35.316461   0.000000
   14       37.050440   0.000000
   15       43.989420   0.000000
   16       59.337318   0.000000
 
  0.9595960E-01  0.0000000E+00  0.9595960E-01  0.1666667E-02
    1       -4.028548   1.000000
    2       18.357116   0.000000
    3       18.357116   0.000000
    4       19.893663   0.000000
    5       20.090526   0.000000
    6       24.452447   0.000000
    7       24.452447   0.000000
    8       25.324785   0.000000
    9       28.666472   0.000000
   10       29.253610   0.000000
   11       32.346651   0.000000
   12       35.369579   0.000000
   13       35.369579   0.000000
   14       37.192904   0.000000
   15       44.218609   0.000000
   16       59.089507   0.000000
 
  0.1010101E+00  0.0000000E+00  0.1010101E+00  0.1666667E-02
    1       -3.990608   1.000000
    2       18.226553   0.000000
    3       18.226553   0.000000
    4       19.813265   0.000000
    5       19.966210   0.000000
    6       24.628420   0.000000
    7       24.628420   0.000000
    8       25.077892   0.000000
    9       28.700409   0.000000
   10       29.454432   0.000000
   11       32.443190   0.000000
   12       35.425766   0.000000
   13       35.425766   0.000000
   14       37.332056   0.000000
   15       44.458998   0.000000
   16       58.840030   0.000000
 
  0.1060606E+00  0.0000000E+00  0.1060606E+00  0.1666667E-02
    1       -3.950729   1.000000
    2       18.097329   0.000000
    3       18.097329   0.000000
    4       19.729661   0.000000
    5       19.841335   0.000000
    6       24.805116   0.000000
    7       24.805116   0.000000
    8       24.829241   0.000000
    9       28.736050   0.000000
   10       29.659730   0.000000
   11       32.544677   0.000000
   12       35.485052   0.000000
   13       35.485052   0.000000
   14       37.467893   0.000000
   15       44.710152   0.000000
   16       58.588310   0.000000
 
  0.1111111E+00  0.0000000E+00  0.1111111E+00  0.1666667E-02
    1       -3.908911   1.000000
    2       17.969478   0.000000
    3       17.969478   0.000000
    4       19.642884   0.000000
    5       19.716149   0.000000
    6       24.579435   0.000000
    7       24.982462   0.000000
    8       24.982463   0.000000
    9       28.773389   0.000000
   10       29.869254   0.000000
   11       32.650827   0.000000
   12       35.547466   0.000000
   13       35.547466   0.000000
   14       37.600491   0.000000
   15       44.971610   0.000000
   16       58.334755   0.000000
 
  0.1161616E+00  0.0000000E+00  0.1161616E+00  0.1666667E-02
    1       -3.865156   1.000000
    2       17.843029   0.000000
    3       17.843029   0.000000
    4       19.552947   0.000000
    5       19.590870   0.000000
    6       24.329031   0.000000
    7       25.160388   0.000000
    8       25.160389   0.000000
    9       28.812420   0.000000
   10       30.082783   0.000000
   11       32.761373   0.000000
   12       35.613043   0.000000
   13       35.613043   0.000000
   14       37.729990   0.000000
   15       45.242893   0.000000
   16       58.079720   0.000000
 
  0.1212121E+00  0.0000000E+00  0.1212121E+00  0.1666667E-02
    1       -3.819465   1.000000
    2       17.718007   0.000000
    3       17.718008   0.000000
    4       19.459842   0.000000
    5       19.465694   0.000000
    6       24.078557   0.000000
    7       25.338825   0.000000
    8       25.338825   0.000000
    9       28.853135   0.000000
   10       30.300122   0.000000
   11       32.876065   0.000000
   12       35.681816   0.000000
   13       35.681816   0.000000
   14       37.856572   0.000000
   15       45.523511   0.000000
   16       57.823532   0.000000
 
  0.1262626E+00  0.0000000E+00  0.1262626E+00  0.1666667E-02
    1       -3.771859   1.000000
    2       17.594422   0.000000
    3       17.594422   0.000000
    4       19.340756   0.000000
    5       19.363531   0.000000
    6       23.828468   0.000000
    7       25.517682   0.000000
    8       25.517682   0.000000
    9       28.895227   0.000000
   10       30.521092   0.000000
   11       32.994566   0.000000
   12       35.753684   0.000000
   13       35.753685   0.000000
   14       37.980416   0.000000
   15       45.812955   0.000000
   16       57.566375   0.000000
 
  0.1313131E+00  0.0000000E+00  0.1313131E+00  0.1666667E-02
    1       -3.722313   1.000000
    2       17.472313   0.000000
    3       17.472313   0.000000
    4       19.216284   0.000000
    5       19.263969   0.000000
    6       23.579340   0.000000
    7       25.696939   0.000000
    8       25.696940   0.000000
    9       28.939288   0.000000
   10       30.745547   0.000000
   11       33.116859   0.000000
   12       35.828954   0.000000
   13       35.828954   0.000000
   14       38.101821   0.000000
   15       46.110778   0.000000
   16       57.308705   0.000000
 
  0.1363636E+00  0.0000000E+00  0.1363636E+00  0.1666667E-02
    1       -3.670834   1.000000
    2       17.351690   0.000000
    3       17.351691   0.000000
    4       19.092377   0.000000
    5       19.161071   0.000000
    6       23.331598   0.000000
    7       25.876508   0.000000
    8       25.876508   0.000000
    9       28.985012   0.000000
   10       30.973343   0.000000
   11       33.242639   0.000000
   12       35.907526   0.000000
   13       35.907526   0.000000
   14       38.220998   0.000000
   15       46.416481   0.000000
   16       57.050653   0.000000
 
  0.1414141E+00  0.0000000E+00  0.1414141E+00  0.1666667E-02
    1       -3.617425   1.000000
    2       17.232571   0.000000
    3       17.232571   0.000000
    4       18.969158   0.000000
    5       19.054724   0.000000
    6       23.085708   0.000000
    7       26.056321   0.000000
    8       26.056321   0.000000
    9       29.032389   0.000000
   10       31.204357   0.000000
   11       33.371713   0.000000
   12       35.989437   0.000000
   13       35.989437   0.000000
   14       38.338194   0.000000
   15       46.729601   0.000000
   16       56.792425   0.000000
 
  0.1464646E+00  0.0000000E+00  0.1464646E+00  0.1666667E-02
    1       -3.562087   1.000000
    2       17.114968   0.000000
    3       17.114969   0.000000
    4       18.846736   0.000000
    5       18.944792   0.000000
    6       22.842135   0.000000
    7       26.236314   0.000000
    8       26.236314   0.000000
    9       29.081410   0.000000
   10       31.438479   0.000000
   11       33.503900   0.000000
   12       36.074724   0.000000
   13       36.074725   0.000000
   14       38.453654   0.000000
   15       47.049690   0.000000
   16       56.534212   0.000000
 
  0.1515152E+00  0.0000000E+00  0.1515152E+00  0.1666667E-02
    1       -3.504821   1.000000
    2       16.998896   0.000000
    3       16.998896   0.000000
    4       18.725209   0.000000
    5       18.831108   0.000000
    6       22.601349   0.000000
    7       26.416421   0.000000
    8       26.416421   0.000000
    9       29.132066   0.000000
   10       31.675608   0.000000
   11       33.639030   0.000000
   12       36.163426   0.000000
   13       36.163426   0.000000
   14       38.567617   0.000000
   15       47.376317   0.000000
   16       56.276183   0.000000
 
  0.1565657E+00  0.0000000E+00  0.1565657E+00  0.1666667E-02
    1       -3.445622   1.000000
    2       16.884377   0.000000
    3       16.884377   0.000000
    4       18.604667   0.000000
    5       18.713480   0.000000
    6       22.363824   0.000000
    7       26.596622   0.000000
    8       26.596622   0.000000
    9       29.184347   0.000000
   10       31.915831   0.000000
   11       33.776943   0.000000
   12       36.255619   0.000000
   13       36.255619   0.000000
   14       38.680317   0.000000
   15       47.709096   0.000000
   16       56.018626   0.000000
 
  0.1616162E+00  0.0000000E+00  0.1616162E+00  0.1666667E-02
    1       -3.384506   1.000000
    2       16.771398   0.000000
    3       16.771398   0.000000
    4       18.485184   0.000000
    5       18.591686   0.000000
    6       22.130030   0.000000
    7       26.776760   0.000000
    8       26.776760   0.000000
    9       29.238241   0.000000
   10       32.158713   0.000000
   11       33.917482   0.000000
   12       36.351260   0.000000
   13       36.351260   0.000000
   14       38.791960   0.000000
   15       48.047583   0.000000
   16       55.761420   0.000000
 
  0.1666667E+00  0.0000000E+00  0.1666667E+00  0.1666667E-02
    1       -3.321467   1.000000
    2       16.659982   0.000000
    3       16.659982   0.000000
    4       18.366834   0.000000
    5       18.465482   0.000000
    6       21.900450   0.000000
    7       26.956816   0.000000
    8       26.956816   0.000000
    9       29.293738   0.000000
   10       32.404358   0.000000
   11       34.060506   0.000000
   12       36.450425   0.000000
   13       36.450425   0.000000
   14       38.902755   0.000000
   15       48.391427   0.000000
   16       55.504834   0.000000
 
  0.1717172E+00  0.0000000E+00  0.1717172E+00  0.1666667E-02
    1       -3.256506   1.000000
    2       16.550137   0.000000
    3       16.550138   0.000000
    4       18.249682   0.000000
    5       18.334611   0.000000
    6       21.675561   0.000000
    7       27.136725   0.000000
    8       27.136725   0.000000
    9       29.350824   0.000000
   10       32.652700   0.000000
   11       34.205879   0.000000
   12       36.553151   0.000000
   13       36.553151   0.000000
   14       39.012889   0.000000
   15       48.740272   0.000000
   16       55.248995   0.000000
 
  0.1767677E+00  0.0000000E+00  0.1767677E+00  0.1666667E-02
    1       -3.189627   1.000000
    2       16.441873   0.000000
    3       16.441874   0.000000
    4       18.133785   0.000000
    5       18.198804   0.000000
    6       21.455833   0.000000
    7       27.316421   0.000000
    8       27.316421   0.000000
    9       29.409488   0.000000
   10       32.903677   0.000000
   11       34.353472   0.000000
   12       36.659470   0.000000
   13       36.659470   0.000000
   14       39.122536   0.000000
   15       49.093774   0.000000
   16       54.994017   0.000000
 
  0.1818182E+00  0.0000000E+00  0.1818182E+00  0.1666667E-02
    1       -3.120831   1.000000
    2       16.335197   0.000000
    3       16.335198   0.000000
    4       18.019197   0.000000
    5       18.057799   0.000000
    6       21.241720   0.000000
    7       27.495841   0.000000
    8       27.495841   0.000000
    9       29.469714   0.000000
   10       33.157233   0.000000
   11       34.503160   0.000000
   12       36.769417   0.000000
   13       36.769417   0.000000
   14       39.231855   0.000000
   15       49.451607   0.000000
   16       54.740010   0.000000
 
  0.1868687E+00  0.0000000E+00  0.1868687E+00  0.1666667E-02
    1       -3.050124   1.000000
    2       16.230116   0.000000
    3       16.230117   0.000000
    4       17.905966   0.000000
    5       17.911346   0.000000
    6       21.033644   0.000000
    7       27.674919   0.000000
    8       27.674919   0.000000
    9       29.531490   0.000000
   10       33.413320   0.000000
   11       34.654826   0.000000
   12       36.883021   0.000000
   13       36.883021   0.000000
   14       39.340989   0.000000
   15       49.813452   0.000000
   16       54.487076   0.000000
 
  0.1919192E+00  0.0000000E+00  0.1919192E+00  0.1666667E-02
    1       -2.977511   1.000000
    2       16.126637   0.000000
    3       16.126638   0.000000
    4       17.759224   0.000000
    5       17.794135   0.000000
    6       20.831989   0.000000
    7       27.853588   0.000000
    8       27.853588   0.000000
    9       29.594799   0.000000
   10       33.671889   0.000000
   11       34.808356   0.000000
   12       37.000311   0.000000
   13       37.000311   0.000000
   14       39.450069   0.000000
   15       50.179004   0.000000
   16       54.235313   0.000000
 
  0.1969697E+00  0.0000000E+00  0.1969697E+00  0.1666667E-02
    1       -2.902986   1.000000
    2       16.024767   0.000000
    3       16.024767   0.000000
    4       17.601263   0.000000
    5       17.683745   0.000000
    6       20.637079   0.000000
    7       28.031791   0.000000
    8       28.031792   0.000000
    9       29.659625   0.000000
   10       33.932898   0.000000
   11       34.963644   0.000000
   12       37.121313   0.000000
   13       37.121313   0.000000
   14       39.559211   0.000000
   15       50.547960   0.000000
   16       53.984819   0.000000
 
  0.2020202E+00  0.0000000E+00  0.2020202E+00  0.1666667E-02
    1       -2.826553   1.000000
    2       15.924511   0.000000
    3       15.924512   0.000000
    4       17.437346   0.000000
    5       17.574831   0.000000
    6       20.449174   0.000000
    7       28.209467   0.000000
    8       28.209467   0.000000
    9       29.725951   0.000000
   10       34.196308   0.000000
   11       35.120588   0.000000
   12       37.246048   0.000000
   13       37.246048   0.000000
   14       39.668521   0.000000
   15       50.920023   0.000000
   16       53.735686   0.000000
 
  0.2070707E+00  0.0000000E+00  0.2070707E+00  0.1666667E-02
    1       -2.748213   1.000000
    2       15.825876   0.000000
    3       15.825876   0.000000
    4       17.267429   0.000000
    5       17.467427   0.000000
    6       20.268448   0.000000
    7       28.386554   0.000000
    8       28.386554   0.000000
    9       29.793758   0.000000
   10       34.462082   0.000000
   11       35.279089   0.000000
   12       37.374534   0.000000
   13       37.374534   0.000000
   14       39.778087   0.000000
   15       51.294893   0.000000
   16       53.488002   0.000000
 
  0.2121212E+00  0.0000000E+00  0.2121212E+00  0.1666667E-02
    1       -2.667967   1.000000
    2       15.728865   0.000000
    3       15.728866   0.000000
    4       17.091554   0.000000
    5       17.361564   0.000000
    6       20.094990   0.000000
    7       28.562995   0.000000
    8       28.562995   0.000000
    9       29.863027   0.000000
   10       34.730186   0.000000
   11       35.439052   0.000000
   12       37.506784   0.000000
   13       37.506784   0.000000
   14       39.887988   0.000000
   15       51.672269   0.000000
   16       53.241857   0.000000
 
  0.2171717E+00  0.0000000E+00  0.2171717E+00  0.1666667E-02
    1       -2.585820   1.000000
    2       15.633485   0.000000
    3       15.633486   0.000000
    4       16.909839   0.000000
    5       17.257269   0.000000
    6       19.928801   0.000000
    7       28.738732   0.000000
    8       28.738732   0.000000
    9       29.933738   0.000000
   10       35.000589   0.000000
   11       35.600383   0.000000
   12       37.642808   0.000000
   13       37.642808   0.000000
   14       39.998293   0.000000
   15       52.051837   0.000000
   16       52.997340   0.000000
 
  0.2222222E+00  0.0000000E+00  0.2222222E+00  0.1666667E-02
    1       -2.501771   1.000000
    2       15.539740   0.000000
    3       15.539741   0.000000
    4       16.722480   0.000000
    5       17.154568   0.000000
    6       19.769794   0.000000
    7       28.913711   0.000000
    8       28.913711   0.000000
    9       30.005868   0.000000
   10       35.273261   0.000000
   11       35.762994   0.000000
   12       37.782608   0.000000
   13       37.782608   0.000000
   14       40.109059   0.000000
   15       52.433279   0.000000
   16       52.754539   0.000000
 
  0.2272727E+00  0.0000000E+00  0.2272727E+00  0.1666667E-02
    1       -2.415826   1.000000
    2       15.447635   0.000000
    3       15.447635   0.000000
    4       16.529745   0.000000
    5       17.053484   0.000000
    6       19.617805   0.000000
    7       29.087878   0.000000
    8       29.087878   0.000000
    9       30.079394   0.000000
   10       35.548175   0.000000
   11       35.926797   0.000000
   12       37.926179   0.000000
   13       37.926179   0.000000
   14       40.220334   0.000000
   15       52.513542   0.000000
   16       52.513546   0.000000
 
  0.2323232E+00  0.0000000E+00  0.2323232E+00  0.1666667E-02
    1       -2.327984   1.000000
    2       15.357172   0.000000
    3       15.357173   0.000000
    4       16.331963   0.000000
    5       16.954041   0.000000
    6       19.472605   0.000000
    7       29.261182   0.000000
    8       29.261182   0.000000
    9       30.154292   0.000000
   10       35.825305   0.000000
   11       36.091708   0.000000
   12       38.073512   0.000000
   13       38.073512   0.000000
   14       40.332155   0.000000
   15       52.274444   0.000000
   16       52.274446   0.000000
 
  0.2373737E+00  0.0000000E+00  0.2373737E+00  0.1666667E-02
    1       -2.238252   1.000000
    2       15.268356   0.000000
    3       15.268356   0.000000
    4       16.129483   0.000000
    5       16.856243   0.000000
    6       19.333891   0.000000
    7       29.433484   0.000000
    8       29.433484   0.000000
    9       30.230529   0.000000
   10       36.104625   0.000000
   11       36.257590   0.000000
   12       38.224582   0.000000
   13       38.224582   0.000000
   14       40.444532   0.000000
   15       52.036360   0.000000
   16       52.036360   0.000000
 
  0.2424242E+00  0.0000000E+00  0.2424242E+00  0.1666667E-02
    1       -2.146628   1.000000
    2       15.181191   0.000000
    3       15.181192   0.000000
    4       15.922751   0.000000
    5       16.760137   0.000000
    6       19.201394   0.000000
    7       29.604913   0.000000
    8       29.604913   0.000000
    9       30.308089   0.000000
   10       36.386113   0.000000
   11       36.424466   0.000000
   12       38.379372   0.000000
   13       38.379372   0.000000
   14       40.557523   0.000000
   15       51.801343   0.000000
   16       51.801343   0.000000
 
  0.2474747E+00  0.0000000E+00  0.2474747E+00  0.1666667E-02
    1       -2.053120   1.000000
    2       15.095681   0.000000
    3       15.095681   0.000000
    4       15.712162   0.000000
    5       16.665726   0.000000
    6       19.074756   0.000000
    7       29.775339   0.000000
    8       29.775339   0.000000
    9       30.386936   0.000000
   10       36.592206   0.000000
   11       36.669747   0.000000
   12       38.537838   0.000000
   13       38.537838   0.000000
   14       40.671118   0.000000
   15       51.568522   0.000000
   16       51.568523   0.000000
 
  0.2525253E+00  0.0000000E+00  0.2525253E+00  0.1666667E-02
    1       -1.957737   1.000000
    2       15.011828   0.000000
    3       15.011828   0.000000
    4       15.498137   0.000000
    5       16.573027   0.000000