 running on   16 total cores
 distrk:  each k-point on   16 cores,    1 groups
 distr:  one band on    1 cores,   16 groups
 using from now: INCAR     
 vasp.5.4.1 24Jun15 (build May 02 2016 14:41:14) complex                        
  
 POSCAR found :  1 types and       1 ions
 scaLAPACK will be used

 ----------------------------------------------------------------------------- 
|                                                                             |
|           W    W    AA    RRRRR   N    N  II  N    N   GGGG   !!!           |
|           W    W   A  A   R    R  NN   N  II  NN   N  G    G  !!!           |
|           W    W  A    A  R    R  N N  N  II  N N  N  G       !!!           |
|           W WW W  AAAAAA  RRRRR   N  N N  II  N  N N  G  GGG   !            |
|           WW  WW  A    A  R   R   N   NN  II  N   NN  G    G                |
|           W    W  A    A  R    R  N    N  II  N    N   GGGG   !!!           |
|                                                                             |
|      For optimal performance we recommend to set                            |
|        NCORE= 4 - approx SQRT( number of cores)                             |
|      NCORE specifies how many cores store one orbital (NPAR=cpu/NCORE).     |
|      This setting can  greatly improve the performance of VASP for DFT.     |
|      The default, NPAR=number of cores might be grossly inefficient         |
|      on modern multi-core architectures or massively parallel machines.     |
|      Do your own testing !!!!                                               |
|      Unfortunately you need to use the default for GW and RPA calculations. |
|      (for HF NCORE is supported but not extensively tested yet)             |
|                                                                             |
 ----------------------------------------------------------------------------- 

 LDA part: xc-table for Pade appr. of Perdew
 POSCAR, INCAR and KPOINTS ok, starting setup
 WARNING: small aliasing (wrap around) errors must be expected
 FFT: planning ...
 WAVECAR not read
 entering main loop
       N       E                     dE             d eps       ncg     rms          rms(c)
DAV:   1    -0.441288432421E+01   -0.44129E+01   -0.17584E+03 22480   0.178E+02
DAV:   2    -0.536270068860E+01   -0.94982E+00   -0.93646E+00 27632   0.115E+01
DAV:   3    -0.536348733912E+01   -0.78665E-03   -0.78663E-03 21136   0.355E-01
DAV:   4    -0.536348756683E+01   -0.22771E-06   -0.22874E-06 33552   0.594E-03
DAV:   5    -0.536348756728E+01   -0.44631E-09   -0.23662E-11 21392   0.114E-05    0.699E-01
DAV:   6    -0.535200817156E+01    0.11479E-01   -0.37486E-03 22096   0.132E-01    0.416E-01
DAV:   7    -0.534557767658E+01    0.64305E-02   -0.80774E-03 20480   0.194E-01    0.228E-02
DAV:   8    -0.534556354932E+01    0.14127E-04   -0.24885E-05 26624   0.203E-02    0.392E-03
DAV:   9    -0.534556430974E+01   -0.76042E-06   -0.20815E-07 27216   0.171E-03
   1 F= -.53455643E+01 E0= -.53447973E+01  d E =-.153405E-02
 writing wavefunctions
