       N       E                     dE             d eps       ncg     rms          rms(c)
DAV:   1    -0.894873797950E+01   -0.89487E+01   -0.14346E+03  4592   0.125E+02
DAV:   2    -0.105492232836E+02   -0.16005E+01   -0.16005E+01  5600   0.141E+01
DAV:   3    -0.105519564800E+02   -0.27332E-02   -0.27332E-02  4848   0.611E-01
DAV:   4    -0.105519583002E+02   -0.18203E-05   -0.18203E-05  6320   0.135E-02
DAV:   5    -0.105519583002E+02   -0.22226E-10   -0.22196E-10  4768   0.399E-05    0.249E+00
DAV:   6    -0.104941859252E+02    0.57772E-01   -0.27282E-02  4976   0.416E-01    0.151E+00
DAV:   7    -0.104614533580E+02    0.32733E-01   -0.65892E-02  5456   0.703E-01    0.104E-01
DAV:   8    -0.104627753567E+02   -0.13220E-02   -0.21587E-03  4752   0.148E-01    0.273E-02
DAV:   9    -0.104629304703E+02   -0.15511E-03   -0.18266E-04  5936   0.477E-02    0.118E-02
DAV:  10    -0.104629424742E+02   -0.12004E-04   -0.21184E-05  4992   0.161E-02    0.226E-03
DAV:  11    -0.104629411457E+02    0.13285E-05   -0.86510E-07  5824   0.239E-03    0.396E-04
DAV:  12    -0.104629410091E+02    0.13663E-06   -0.37515E-08  2656   0.820E-04
   1 F= -.10462941E+02 E0= -.10462941E+02  d E =-.150172E-10
