       N       E                     dE             d eps       ncg     rms          rms(c)
DAV:   1    -0.153421181391E+01   -0.15342E+01   -0.31558E+03  3840   0.381E+02
DAV:   2    -0.105648561332E+02   -0.90306E+01   -0.89002E+01  5584   0.342E+01
DAV:   3    -0.106313717110E+02   -0.66516E-01   -0.66516E-01  4528   0.372E+00
DAV:   4    -0.106315841310E+02   -0.21242E-03   -0.21242E-03  6976   0.228E-01
DAV:   5    -0.106315841492E+02   -0.18244E-07   -0.18230E-07  4512   0.176E-03    0.254E+00
DAV:   6    -0.105738125800E+02    0.57772E-01   -0.31864E-02  5424   0.474E-01    0.155E+00
DAV:   7    -0.105421152192E+02    0.31697E-01   -0.72980E-02  5824   0.781E-01    0.111E-01
DAV:   8    -0.105434633338E+02   -0.13481E-02   -0.23891E-03  4704   0.172E-01    0.277E-02
DAV:   9    -0.105436246857E+02   -0.16135E-03   -0.18614E-04  6528   0.508E-02    0.122E-02
DAV:  10    -0.105436377930E+02   -0.13107E-04   -0.20260E-05  4992   0.174E-02    0.260E-03
DAV:  11    -0.105436368102E+02    0.98281E-06   -0.14345E-06  6640   0.360E-03
   1 F= -.10543637E+02 E0= -.10543637E+02  d E =-.340211E-11
