       N       E                     dE             d eps       ncg     rms          rms(c)
DAV:   1    -0.495679065325E+01   -0.49568E+01   -0.23609E+03  3904   0.252E+02
DAV:   2    -0.105918403518E+02   -0.56350E+01   -0.55637E+01  5760   0.268E+01
DAV:   3    -0.106258357976E+02   -0.33995E-01   -0.33995E-01  4368   0.251E+00
DAV:   4    -0.106259211479E+02   -0.85350E-04   -0.85350E-04  7056   0.130E-01
DAV:   5    -0.106259211520E+02   -0.41515E-08   -0.41486E-08  4400   0.786E-04    0.254E+00
DAV:   6    -0.105682349300E+02    0.57686E-01   -0.31694E-02  5264   0.471E-01    0.155E+00
DAV:   7    -0.105366152858E+02    0.31620E-01   -0.72612E-02  5856   0.774E-01    0.111E-01
DAV:   8    -0.105379621690E+02   -0.13469E-02   -0.23533E-03  4624   0.163E-01    0.273E-02
DAV:   9    -0.105381210905E+02   -0.15892E-03   -0.18037E-04  6544   0.485E-02    0.121E-02
DAV:  10    -0.105381345302E+02   -0.13440E-04   -0.21314E-05  4816   0.172E-02    0.251E-03
DAV:  11    -0.105381335174E+02    0.10129E-05   -0.12843E-06  6704   0.328E-03    0.440E-04
DAV:  12    -0.105381334352E+02    0.82190E-07   -0.47509E-08  3456   0.103E-03
   1 F= -.10538133E+02 E0= -.10538133E+02  d E =-.118861E-10
