       N       E                     dE             d eps       ncg     rms          rms(c)
DAV:   1    -0.920555279303E+01   -0.92056E+01   -0.13668E+03  4736   0.116E+02
DAV:   2    -0.105459145842E+02   -0.13404E+01   -0.13403E+01  5424   0.130E+01
DAV:   3    -0.105479211159E+02   -0.20065E-02   -0.20065E-02  5008   0.521E-01
DAV:   4    -0.105479220735E+02   -0.95752E-06   -0.95750E-06  6160   0.922E-03
DAV:   5    -0.105479220735E+02   -0.16200E-10   -0.79593E-11  4944   0.248E-05    0.248E+00
DAV:   6    -0.104918157939E+02    0.56106E-01   -0.26050E-02  4768   0.401E-01    0.151E+00
DAV:   7    -0.104591676540E+02    0.32648E-01   -0.63306E-02  5504   0.682E-01    0.102E-01
DAV:   8    -0.104604392171E+02   -0.12716E-02   -0.20007E-03  4656   0.140E-01    0.272E-02
DAV:   9    -0.104605955265E+02   -0.15631E-03   -0.18247E-04  5920   0.471E-02    0.119E-02
DAV:  10    -0.104606064893E+02   -0.10963E-04   -0.20898E-05  4896   0.159E-02    0.206E-03
DAV:  11    -0.104606053058E+02    0.11835E-05   -0.69519E-07  6032   0.213E-03    0.377E-04
DAV:  12    -0.104606051876E+02    0.11828E-06   -0.34532E-08  2544   0.767E-04
   1 F= -.10460605E+02 E0= -.10460605E+02  d E =-.193659E-11
