       N       E                     dE             d eps       ncg     rms          rms(c)
DAV:   1    -0.390113638875E+01   -0.39011E+01   -0.25715E+03  3856   0.285E+02
DAV:   2    -0.105876349784E+02   -0.66865E+01   -0.66032E+01  5664   0.293E+01
DAV:   3    -0.106299565116E+02   -0.42322E-01   -0.42322E-01  4528   0.290E+00
DAV:   4    -0.106300732251E+02   -0.11671E-03   -0.11671E-03  7088   0.159E-01
DAV:   5    -0.106300732303E+02   -0.51738E-08   -0.51633E-08  4448   0.982E-04    0.254E+00
DAV:   6    -0.105723671159E+02    0.57706E-01   -0.31752E-02  5424   0.471E-01    0.155E+00
DAV:   7    -0.105407167063E+02    0.31650E-01   -0.72725E-02  5824   0.774E-01    0.111E-01
DAV:   8    -0.105420642275E+02   -0.13475E-02   -0.23784E-03  4752   0.167E-01    0.275E-02
DAV:   9    -0.105422246675E+02   -0.16044E-03   -0.18346E-04  6464   0.493E-02    0.121E-02
DAV:  10    -0.105422379020E+02   -0.13234E-04   -0.20528E-05  4960   0.171E-02    0.254E-03
DAV:  11    -0.105422368965E+02    0.10055E-05   -0.13506E-06  6496   0.340E-03    0.442E-04
DAV:  12    -0.105422368258E+02    0.70691E-07   -0.46905E-08  3440   0.103E-03
   1 F= -.10542237E+02 E0= -.10542237E+02  d E =-.568651E-11
