       N       E                     dE             d eps       ncg     rms          rms(c)
DAV:   1    -0.966097732044E+01   -0.96610E+01   -0.12338E+03  4928   0.100E+02
DAV:   2    -0.105164909220E+02   -0.85551E+00   -0.85551E+00  5136   0.105E+01
DAV:   3    -0.105172502595E+02   -0.75934E-03   -0.75934E-03  5584   0.311E-01
DAV:   4    -0.105172504368E+02   -0.17733E-06   -0.17733E-06  5376   0.326E-03
DAV:   5    -0.105172504368E+02   -0.27853E-11   -0.22829E-11  5472   0.117E-05    0.248E+00
DAV:   6    -0.104680967094E+02    0.49154E-01   -0.21556E-02  4736   0.357E-01    0.151E+00
DAV:   7    -0.104367311968E+02    0.31366E-01   -0.54914E-02  5264   0.623E-01    0.964E-02
DAV:   8    -0.104378350997E+02   -0.11039E-02   -0.15200E-03  4704   0.117E-01    0.280E-02
DAV:   9    -0.104379916543E+02   -0.15655E-03   -0.18170E-04  5520   0.457E-02    0.122E-02
DAV:  10    -0.104379973174E+02   -0.56631E-05   -0.18076E-05  4928   0.144E-02    0.160E-03
DAV:  11    -0.104379962776E+02    0.10398E-05   -0.35090E-07  5120   0.155E-03    0.509E-04
DAV:  12    -0.104379962470E+02    0.30583E-07   -0.25023E-08  2432   0.605E-04
   1 F= -.10437996E+02 E0= -.10437996E+02  d E =-.133533E-11
