 vasp.5.4.1 24Jun15 (build May 02 2016 14:41:14) complex                        
  
 executed on           IFC91_ompi date 2022.05.07  11:09:38
 running on   16 total cores
 distrk:  each k-point on   16 cores,    1 groups
 distr:  one band on NCORES_PER_BAND=   1 cores,   16 groups


--------------------------------------------------------------------------------------------------------


 INCAR:
 POTCAR:   PAW_PBE Si 05Jan2001                   

 ----------------------------------------------------------------------------- 
|                                                                             |
|           W    W    AA    RRRRR   N    N  II  N    N   GGGG   !!!           |
|           W    W   A  A   R    R  NN   N  II  NN   N  G    G  !!!           |
|           W    W  A    A  R    R  N N  N  II  N N  N  G       !!!           |
|           W WW W  AAAAAA  RRRRR   N  N N  II  N  N N  G  GGG   !            |
|           WW  WW  A    A  R   R   N   NN  II  N   NN  G    G                |
|           W    W  A    A  R    R  N    N  II  N    N   GGGG   !!!           |
|                                                                             |
|      For optimal performance we recommend to set                            |
|        NCORE= 4 - approx SQRT( number of cores)                             |
|      NCORE specifies how many cores store one orbital (NPAR=cpu/NCORE).     |
|      This setting can  greatly improve the performance of VASP for DFT.     |
|      The default, NPAR=number of cores might be grossly inefficient         |
|      on modern multi-core architectures or massively parallel machines.     |
|      Do your own testing !!!!                                               |
|      Unfortunately you need to use the default for GW and RPA calculations. |
|      (for HF NCORE is supported but not extensively tested yet)             |
|                                                                             |
 ----------------------------------------------------------------------------- 

 POTCAR:   PAW_PBE Si 05Jan2001                   
   VRHFIN =Si: s2p2                                                             
   LEXCH  = PE                                                                  
   EATOM  =   103.0669 eV,    7.5752 Ry                                         
                                                                                
   TITEL  = PAW_PBE Si 05Jan2001                                                
   LULTRA =        F    use ultrasoft PP ?                                      
   IUNSCR =        1    unscreen: 0-lin 1-nonlin 2-no                           
   RPACOR =    1.500    partial core radius                                     
   POMASS =   28.085; ZVAL   =    4.000    mass and valenz                      
   RCORE  =    1.900    outmost cutoff radius                                   
   RWIGS  =    2.480; RWIGS  =    1.312    wigner-seitz radius (au A)           
   ENMAX  =  245.345; ENMIN  =  184.009 eV                                      
   ICORE  =        2    local potential                                         
   LCOR   =        T    correct aug charges                                     
   LPAW   =        T    paw PP                                                  
   EAUG   =  322.069                                                            
   DEXC   =    -.007                                                            
   RMAX   =    2.944    core radius for proj-oper                               
   RAUG   =    1.300    factor for augmentation sphere                          
   RDEP   =    1.993    radius for radial grids                                 
   QCUT   =   -4.246; QGAM   =    8.493    optimization parameters              
                                                                                
   Description                                                                  
     l     E      TYP  RCUT    TYP  RCUT                                        
     0   .000     23  1.900                                                     
     0   .000     23  1.900                                                     
     1   .000     23  1.900                                                     
     1   .000     23  1.900                                                     
     2   .000      7  1.900                                                     
  local pseudopotential read in
  partial core-charges read in
  atomic valenz-charges read in
  non local Contribution for L=           0  read in
    real space projection operators read in
  non local Contribution for L=           0  read in
    real space projection operators read in
  non local Contribution for L=           1  read in
    real space projection operators read in
  non local Contribution for L=           1  read in
    real space projection operators read in
    PAW grid and wavefunctions read in
 
   number of l-projection  operators is LMAX  =           4
   number of lm-projection operators is LMMAX =           8
 
 PAW_PBE Si 05Jan2001                   :
 energy of atom  1       EATOM= -103.0669
 kinetic energy error for atom=    0.0061 (will be added to EATOM!!)
 
 
 POSCAR: Real silicon structure                  
  positions in direct lattice
  No initial velocities read in
 exchange correlation table for  LEXCH =        8
   RHO(1)=    0.500       N(1)  =     2000
   RHO(2)=  100.500       N(2)  =     4000
 


--------------------------------------------------------------------------------------------------------


 ion  position               nearest neighbor table
   1  0.875  0.875  0.875-   2 2.51   2 2.51   2 2.51   2 2.51
   2  0.125  0.125  0.125-   1 2.51   1 2.51   1 2.51   1 2.51
 
  LATTYP: Found a face centered cubic cell.
 ALAT       =     5.8000000000
  
  Lattice vectors:
  
 A1 = (   0.0000000000,   2.9000000000,   2.9000000000)
 A2 = (   2.9000000000,   0.0000000000,   2.9000000000)
 A3 = (   2.9000000000,   2.9000000000,   0.0000000000)


Analysis of symmetry for initial positions (statically):
=====================================================================
 Subroutine PRICEL returns:
 Original cell was already a primitive cell.
 

 Routine SETGRP: Setting up the symmetry group for a 
 face centered cubic supercell.


 Subroutine GETGRP returns: Found 48 space group operations
 (whereof 12 operations were pure point group operations)
 out of a pool of 48 trial point group operations.


The static configuration has the point symmetry D_3d.
 The point group associated with its full space group is O_h .


Analysis of symmetry for dynamics (positions and initial velocities):
=====================================================================
 Subroutine PRICEL returns:
 Original cell was already a primitive cell.
 

 Routine SETGRP: Setting up the symmetry group for a 
 face centered cubic supercell.


 Subroutine GETGRP returns: Found 48 space group operations
 (whereof 12 operations were pure point group operations)
 out of a pool of 48 trial point group operations.


The dynamic configuration has the point symmetry D_3d.
 The point group associated with its full space group is O_h .
 
 
 KPOINTS: k-points                                

Automatic generation of k-mesh.
Space group operators:
 irot       det(A)        alpha          n_x          n_y          n_z        tau_x        tau_y        tau_z
    1     1.000000     0.000000     1.000000     0.000000     0.000000     0.000000     0.000000     0.000000
    2    -1.000000     0.000000     1.000000     0.000000     0.000000     0.000000     0.000000     0.000000
    3     1.000000   120.000000    -0.577350    -0.577350    -0.577350     0.000000     0.000000     0.000000
    4    -1.000000   120.000000    -0.577350    -0.577350    -0.577350     0.000000     0.000000     0.000000
    5     1.000000   120.000000     0.577350     0.577350     0.577350     0.000000     0.000000     0.000000
    6    -1.000000   120.000000     0.577350     0.577350     0.577350     0.000000     0.000000     0.000000
    7     1.000000   180.000000     0.000000    -0.707107     0.707107     0.000000     0.000000     0.000000
    8    -1.000000   180.000000     0.000000    -0.707107     0.707107     0.000000     0.000000     0.000000
    9     1.000000   180.000000     0.707107    -0.707107     0.000000     0.000000     0.000000     0.000000
   10    -1.000000   180.000000     0.707107    -0.707107     0.000000     0.000000     0.000000     0.000000
   11     1.000000   180.000000     0.707107     0.000000    -0.707107     0.000000     0.000000     0.000000
   12    -1.000000   180.000000     0.707107     0.000000    -0.707107     0.000000     0.000000     0.000000
   13     1.000000    90.000000     0.000000     0.000000    -1.000000     0.500000     0.000000     0.000000
   14    -1.000000    90.000000     0.000000     0.000000    -1.000000     0.500000     0.000000     0.000000
   15     1.000000   180.000000     0.000000     0.707107     0.707107     0.500000     0.000000     0.000000
   16    -1.000000   180.000000     0.000000     0.707107     0.707107     0.500000     0.000000     0.000000
   17     1.000000    90.000000     0.000000     1.000000     0.000000     0.500000     0.000000     0.000000
   18    -1.000000    90.000000     0.000000     1.000000     0.000000     0.500000     0.000000     0.000000
   19     1.000000   180.000000     0.000000     0.000000     1.000000     0.000000     0.000000     0.500000
   20    -1.000000   180.000000     0.000000     0.000000     1.000000     0.000000     0.000000     0.500000
   21     1.000000   120.000000    -0.577350     0.577350     0.577350     0.000000     0.000000     0.500000
   22    -1.000000   120.000000    -0.577350     0.577350     0.577350     0.000000     0.000000     0.500000
   23     1.000000   120.000000    -0.577350     0.577350    -0.577350     0.000000     0.000000     0.500000
   24    -1.000000   120.000000    -0.577350     0.577350    -0.577350     0.000000     0.000000     0.500000
   25     1.000000    90.000000     0.000000     0.000000     1.000000     0.000000     0.500000     0.000000
   26    -1.000000    90.000000     0.000000     0.000000     1.000000     0.000000     0.500000     0.000000
   27     1.000000    90.000000    -1.000000     0.000000     0.000000     0.000000     0.500000     0.000000
   28    -1.000000    90.000000    -1.000000     0.000000     0.000000     0.000000     0.500000     0.000000
   29     1.000000   180.000000     0.707107     0.000000     0.707107     0.000000     0.500000     0.000000
   30    -1.000000   180.000000     0.707107     0.000000     0.707107     0.000000     0.500000     0.000000
   31     1.000000   120.000000     0.577350    -0.577350     0.577350     0.500000     0.000000     0.000000
   32    -1.000000   120.000000     0.577350    -0.577350     0.577350     0.500000     0.000000     0.000000
   33     1.000000   120.000000    -0.577350    -0.577350     0.577350     0.500000     0.000000     0.000000
   34    -1.000000   120.000000    -0.577350    -0.577350     0.577350     0.500000     0.000000     0.000000
   35     1.000000   180.000000     1.000000     0.000000     0.000000     0.500000     0.000000     0.000000
   36    -1.000000   180.000000     1.000000     0.000000     0.000000     0.500000     0.000000     0.000000
   37     1.000000    90.000000     0.000000    -1.000000     0.000000     0.000000     0.000000     0.500000
   38    -1.000000    90.000000     0.000000    -1.000000     0.000000     0.000000     0.000000     0.500000
   39     1.000000   180.000000     0.707107     0.707107     0.000000     0.000000     0.000000     0.500000
   40    -1.000000   180.000000     0.707107     0.707107     0.000000     0.000000     0.000000     0.500000
   41     1.000000    90.000000     1.000000     0.000000     0.000000     0.000000     0.000000     0.500000
   42    -1.000000    90.000000     1.000000     0.000000     0.000000     0.000000     0.000000     0.500000
   43     1.000000   120.000000     0.577350    -0.577350    -0.577350     0.000000     0.500000     0.000000
   44    -1.000000   120.000000     0.577350    -0.577350    -0.577350     0.000000     0.500000     0.000000
   45     1.000000   180.000000     0.000000     1.000000     0.000000     0.000000     0.500000     0.000000
   46    -1.000000   180.000000     0.000000     1.000000     0.000000     0.000000     0.500000     0.000000
   47     1.000000   120.000000     0.577350     0.577350    -0.577350     0.000000     0.500000     0.000000
   48    -1.000000   120.000000     0.577350     0.577350    -0.577350     0.000000     0.500000     0.000000
 
 Subroutine IBZKPT returns following result:
 ===========================================
 
 Found    120 irreducible k-points:
 
 Following reciprocal coordinates:
            Coordinates               Weight
  0.000000  0.000000  0.000000      1.000000
  0.066667  0.000000  0.000000      8.000000
  0.133333  0.000000  0.000000      8.000000
  0.200000  0.000000  0.000000      8.000000
  0.266667  0.000000  0.000000      8.000000
  0.333333  0.000000  0.000000      8.000000
  0.400000  0.000000  0.000000      8.000000
  0.466667  0.000000  0.000000      8.000000
  0.066667  0.066667  0.000000      6.000000
  0.133333  0.066667  0.000000     24.000000
  0.200000  0.066667  0.000000     24.000000
  0.266667  0.066667  0.000000     24.000000
  0.333333  0.066667  0.000000     24.000000
  0.400000  0.066667  0.000000     24.000000
  0.466667  0.066667  0.000000     24.000000
 -0.466667  0.066667  0.000000     24.000000
 -0.400000  0.066667  0.000000     24.000000
 -0.333333  0.066667  0.000000     24.000000
 -0.266667  0.066667  0.000000     24.000000
 -0.200000  0.066667  0.000000     24.000000
 -0.133333  0.066667  0.000000     24.000000
 -0.066667  0.066667  0.000000     12.000000
  0.133333  0.133333  0.000000      6.000000
  0.200000  0.133333  0.000000     24.000000
  0.266667  0.133333  0.000000     24.000000
  0.333333  0.133333  0.000000     24.000000
  0.400000  0.133333  0.000000     24.000000
  0.466667  0.133333  0.000000     24.000000
 -0.466667  0.133333  0.000000     24.000000
 -0.400000  0.133333  0.000000     24.000000
 -0.333333  0.133333  0.000000     24.000000
 -0.266667  0.133333  0.000000     24.000000
 -0.200000  0.133333  0.000000     24.000000
 -0.133333  0.133333  0.000000     12.000000
  0.200000  0.200000  0.000000      6.000000
  0.266667  0.200000  0.000000     24.000000
  0.333333  0.200000  0.000000     24.000000
  0.400000  0.200000  0.000000     24.000000
  0.466667  0.200000  0.000000     24.000000
 -0.466667  0.200000  0.000000     24.000000
 -0.400000  0.200000  0.000000     24.000000
 -0.333333  0.200000  0.000000     24.000000
 -0.266667  0.200000  0.000000     24.000000
 -0.200000  0.200000  0.000000     12.000000
  0.266667  0.266667  0.000000      6.000000
  0.333333  0.266667  0.000000     24.000000
  0.400000  0.266667  0.000000     24.000000
  0.466667  0.266667  0.000000     24.000000
 -0.466667  0.266667  0.000000     24.000000
 -0.400000  0.266667  0.000000     24.000000
 -0.333333  0.266667  0.000000     24.000000
 -0.266667  0.266667  0.000000     12.000000
  0.333333  0.333333  0.000000      6.000000
  0.400000  0.333333  0.000000     24.000000
  0.466667  0.333333  0.000000     24.000000
 -0.466667  0.333333  0.000000     24.000000
 -0.400000  0.333333  0.000000     24.000000
 -0.333333  0.333333  0.000000     12.000000
  0.400000  0.400000  0.000000      6.000000
  0.466667  0.400000  0.000000     24.000000
 -0.466667  0.400000  0.000000     24.000000
 -0.400000  0.400000  0.000000     12.000000
  0.466667  0.466667  0.000000      6.000000
 -0.466667  0.466667  0.000000     12.000000
  0.200000  0.133333  0.066667     24.000000
  0.266667  0.133333  0.066667     48.000000
  0.333333  0.133333  0.066667     48.000000
  0.400000  0.133333  0.066667     48.000000
  0.466667  0.133333  0.066667     48.000000
 -0.466667  0.133333  0.066667     48.000000
  0.266667  0.200000  0.066667     24.000000
  0.333333  0.200000  0.066667     48.000000
  0.400000  0.200000  0.066667     48.000000
  0.466667  0.200000  0.066667     48.000000
 -0.466667  0.200000  0.066667     48.000000
 -0.400000  0.200000  0.066667     48.000000
 -0.333333  0.200000  0.066667     48.000000
 -0.266667  0.200000  0.066667     48.000000
 -0.200000  0.200000  0.066667     48.000000
 -0.133333  0.200000  0.066667     24.000000
  0.333333  0.266667  0.066667     24.000000
  0.400000  0.266667  0.066667     48.000000
  0.466667  0.266667  0.066667     48.000000
 -0.466667  0.266667  0.066667     48.000000
 -0.400000  0.266667  0.066667     48.000000
 -0.333333  0.266667  0.066667     48.000000
 -0.266667  0.266667  0.066667     48.000000
 -0.200000  0.266667  0.066667     24.000000
  0.400000  0.333333  0.066667     24.000000
  0.466667  0.333333  0.066667     48.000000
 -0.466667  0.333333  0.066667     48.000000
 -0.400000  0.333333  0.066667     48.000000
 -0.333333  0.333333  0.066667     48.000000
 -0.266667  0.333333  0.066667     24.000000
  0.466667  0.400000  0.066667     24.000000
 -0.466667  0.400000  0.066667     48.000000
 -0.400000  0.400000  0.066667     48.000000
 -0.333333  0.400000  0.066667     24.000000
 -0.466667  0.466667  0.066667     24.000000
 -0.400000  0.466667  0.066667     24.000000
  0.400000  0.266667  0.133333     24.000000
  0.466667  0.266667  0.133333     48.000000
 -0.466667  0.266667  0.133333     48.000000
 -0.400000  0.266667  0.133333     48.000000
  0.466667  0.333333  0.133333     24.000000
 -0.466667  0.333333  0.133333     48.000000
 -0.400000  0.333333  0.133333     48.000000
 -0.333333  0.333333  0.133333     48.000000
 -0.266667  0.333333  0.133333     48.000000
 -0.200000  0.333333  0.133333     24.000000
 -0.466667  0.400000  0.133333     24.000000
 -0.400000  0.400000  0.133333     48.000000
 -0.333333  0.400000  0.133333     48.000000
 -0.266667  0.400000  0.133333     24.000000
 -0.400000  0.466667  0.133333     24.000000
 -0.333333  0.466667  0.133333     24.000000
 -0.400000  0.400000  0.200000     24.000000
 -0.333333  0.400000  0.200000     48.000000
 -0.333333  0.466667  0.200000     24.000000
 -0.266667  0.466667  0.200000     24.000000
 
 Following cartesian coordinates:
            Coordinates               Weight
  0.000000  0.000000  0.000000      1.000000
 -0.066667  0.066667  0.066667      8.000000
 -0.133333  0.133333  0.133333      8.000000
 -0.200000  0.200000  0.200000      8.000000
 -0.266667  0.266667  0.266667      8.000000
 -0.333333  0.333333  0.333333      8.000000
 -0.400000  0.400000  0.400000      8.000000
 -0.466667  0.466667  0.466667      8.000000
  0.000000  0.000000  0.133333      6.000000
 -0.066667  0.066667  0.200000     24.000000
 -0.133333  0.133333  0.266667     24.000000
 -0.200000  0.200000  0.333333     24.000000
 -0.266667  0.266667  0.400000     24.000000
 -0.333333  0.333333  0.466667     24.000000
 -0.400000  0.400000  0.533333     24.000000
  0.533333 -0.533333 -0.400000     24.000000
  0.466667 -0.466667 -0.333333     24.000000
  0.400000 -0.400000 -0.266667     24.000000
  0.333333 -0.333333 -0.200000     24.000000
  0.266667 -0.266667 -0.133333     24.000000
  0.200000 -0.200000 -0.066667     24.000000
  0.133333 -0.133333  0.000000     12.000000
  0.000000  0.000000  0.266667      6.000000
 -0.066667  0.066667  0.333333     24.000000
 -0.133333  0.133333  0.400000     24.000000
 -0.200000  0.200000  0.466667     24.000000
 -0.266667  0.266667  0.533333     24.000000
 -0.333333  0.333333  0.600000     24.000000
  0.600000 -0.600000 -0.333333     24.000000
  0.533333 -0.533333 -0.266667     24.000000
  0.466667 -0.466667 -0.200000     24.000000
  0.400000 -0.400000 -0.133333     24.000000
  0.333333 -0.333333 -0.066667     24.000000
  0.266667 -0.266667  0.000000     12.000000
  0.000000  0.000000  0.400000      6.000000
 -0.066667  0.066667  0.466667     24.000000
 -0.133333  0.133333  0.533333     24.000000
 -0.200000  0.200000  0.600000     24.000000
 -0.266667  0.266667  0.666667     24.000000
  0.666667 -0.666667 -0.266667     24.000000
  0.600000 -0.600000 -0.200000     24.000000
  0.533333 -0.533333 -0.133333     24.000000
  0.466667 -0.466667 -0.066667     24.000000
  0.400000 -0.400000  0.000000     12.000000
  0.000000  0.000000  0.533333      6.000000
 -0.066667  0.066667  0.600000     24.000000
 -0.133333  0.133333  0.666667     24.000000
 -0.200000  0.200000  0.733333     24.000000
  0.733333 -0.733333 -0.200000     24.000000
  0.666667 -0.666667 -0.133333     24.000000
  0.600000 -0.600000 -0.066667     24.000000
  0.533333 -0.533333  0.000000     12.000000
  0.000000  0.000000  0.666667      6.000000
 -0.066667  0.066667  0.733333     24.000000
 -0.133333  0.133333  0.800000     24.000000
  0.800000 -0.800000 -0.133333     24.000000
  0.733333 -0.733333 -0.066667     24.000000
  0.666667 -0.666667  0.000000     12.000000
  0.000000  0.000000  0.800000      6.000000
 -0.066667  0.066667  0.866667     24.000000
  0.866667 -0.866667 -0.066667     24.000000
  0.800000 -0.800000  0.000000     12.000000
  0.000000  0.000000  0.933333      6.000000
  0.933333 -0.933333  0.000000     12.000000
  0.000000  0.133333  0.266667     24.000000
 -0.066667  0.200000  0.333333     48.000000
 -0.133333  0.266667  0.400000     48.000000
 -0.200000  0.333333  0.466667     48.000000
 -0.266667  0.400000  0.533333     48.000000
  0.666667 -0.533333 -0.400000     48.000000
  0.000000  0.133333  0.400000     24.000000
 -0.066667  0.200000  0.466667     48.000000
 -0.133333  0.266667  0.533333     48.000000
 -0.200000  0.333333  0.600000     48.000000
  0.733333 -0.600000 -0.333333     48.000000
  0.666667 -0.533333 -0.266667     48.000000
  0.600000 -0.466667 -0.200000     48.000000
  0.533333 -0.400000 -0.133333     48.000000
  0.466667 -0.333333 -0.066667     48.000000
  0.400000 -0.266667  0.000000     24.000000
  0.000000  0.133333  0.533333     24.000000
 -0.066667  0.200000  0.600000     48.000000
 -0.133333  0.266667  0.666667     48.000000
  0.800000 -0.666667 -0.266667     48.000000
  0.733333 -0.600000 -0.200000     48.000000
  0.666667 -0.533333 -0.133333     48.000000
  0.600000 -0.466667 -0.066667     48.000000
  0.533333 -0.400000 -0.000000     24.000000
 -0.000000  0.133333  0.666667     24.000000
 -0.066667  0.200000  0.733333     48.000000
  0.866667 -0.733333 -0.200000     48.000000
  0.800000 -0.666667 -0.133333     48.000000
  0.733333 -0.600000 -0.066667     48.000000
  0.666667 -0.533333 -0.000000     24.000000
  0.000000  0.133333  0.800000     24.000000
  0.933333 -0.800000 -0.133333     48.000000
  0.866667 -0.733333 -0.066667     48.000000
  0.800000 -0.666667  0.000000     24.000000
  1.000000 -0.866667 -0.066667     24.000000
  0.933333 -0.800000 -0.000000     24.000000
 -0.000000  0.266667  0.533333     24.000000
 -0.066667  0.333333  0.600000     48.000000
  0.866667 -0.600000 -0.333333     48.000000
  0.800000 -0.533333 -0.266667     48.000000
 -0.000000  0.266667  0.666667     24.000000
  0.933333 -0.666667 -0.266667     48.000000
  0.866667 -0.600000 -0.200000     48.000000
  0.800000 -0.533333 -0.133333     48.000000
  0.733333 -0.466667 -0.066667     48.000000
  0.666667 -0.400000 -0.000000     24.000000
  1.000000 -0.733333 -0.200000     24.000000
  0.933333 -0.666667 -0.133333     48.000000
  0.866667 -0.600000 -0.066667     48.000000
  0.800000 -0.533333  0.000000     24.000000
  1.000000 -0.733333 -0.066667     24.000000
  0.933333 -0.666667  0.000000     24.000000
  1.000000 -0.600000 -0.200000     24.000000
  0.933333 -0.533333 -0.133333     48.000000
  1.000000 -0.600000 -0.066667     24.000000
  0.933333 -0.533333  0.000000     24.000000
 


--------------------------------------------------------------------------------------------------------




 Dimension of arrays:
   k-points           NKPTS =    120   k-points in BZ     NKDIM =    120   number of bands    NBANDS=     16
   number of dos      NEDOS =    301   number of ions     NIONS =      2
   non local maximal  LDIM  =      4   non local SUM 2l+1 LMDIM =      8
   total plane-waves  NPLWV =   4096
   max r-space proj   IRMAX =      1   max aug-charges    IRDMAX=   3007
   dimension x,y,z NGX =    16 NGY =   16 NGZ =   16
   dimension x,y,z NGXF=    32 NGYF=   32 NGZF=   32
   support grid    NGXF=    32 NGYF=   32 NGZF=   32
   ions per type =               2
 NGX,Y,Z   is equivalent  to a cutoff of   6.49,  6.49,  6.49 a.u.
 NGXF,Y,Z  is equivalent  to a cutoff of  12.97, 12.97, 12.97 a.u.


 I would recommend the setting:
   dimension x,y,z NGX =    16 NGY =   16 NGZ =   16
 SYSTEM =  Silicon                                 
 POSCAR =  Real silicon structure                  

 Startparameter for this run:
   NWRITE =      2    write-flag & timer
   PREC   = normal    normal or accurate (medium, high low for compatibility)
   ISTART =      0    job   : 0-new  1-cont  2-samecut
   ICHARG =      2    charge: 1-file 2-atom 10-const
   ISPIN  =      1    spin polarized calculation?
   LNONCOLLINEAR =      F non collinear calculations
   LSORBIT =      F    spin-orbit coupling
   INIWAV =      1    electr: 0-lowe 1-rand  2-diag
   LASPH  =      F    aspherical Exc in radial PAW
   METAGGA=      F    non-selfconsistent MetaGGA calc.

 Electronic Relaxation 1
   ENCUT  =  240.0 eV  17.64 Ry    4.20 a.u.   5.18  5.18  5.18*2*pi/ulx,y,z
   ENINI  =  240.0     initial cutoff
   ENAUG  =  322.1 eV  augmentation charge cutoff
   NELM   =    100;   NELMIN=  4; NELMDL= -5     # of ELM steps 
   EDIFF  = 0.1E-05   stopping-criterion for ELM
   LREAL  =      F    real-space projection
   NLSPLINE    = F    spline interpolate recip. space projectors
   LCOMPAT=      F    compatible to vasp.4.4
   GGA_COMPAT  = T    GGA compatible to vasp.4.4-vasp.4.6
   LMAXPAW     = -100 max onsite density
   LMAXMIX     =    2 max onsite mixed and CHGCAR
   VOSKOWN=      0    Vosko Wilk Nusair interpolation
   ROPT   =    0.00000
 Ionic relaxation
   EDIFFG = 0.1E-04   stopping-criterion for IOM
   NSW    =      0    number of steps for IOM
   NBLOCK =      1;   KBLOCK =      1    inner block; outer block 
   IBRION =     -1    ionic relax: 0-MD 1-quasi-New 2-CG
   NFREE  =      0    steps in history (QN), initial steepest desc. (CG)
   ISIF   =      2    stress and relaxation
   IWAVPR =     10    prediction:  0-non 1-charg 2-wave 3-comb
   ISYM   =      2    0-nonsym 1-usesym 2-fastsym
   LCORR  =      T    Harris-Foulkes like correction to forces

   POTIM  = 0.5000    time-step for ionic-motion
   TEIN   =    0.0    initial temperature
   TEBEG  =    0.0;   TEEND  =   0.0 temperature during run
   SMASS  =  -3.00    Nose mass-parameter (am)
   estimated Nose-frequenzy (Omega)   =  0.10E-29 period in steps =****** mass=  -0.384E-27a.u.
   SCALEE = 1.0000    scale energy and forces
   NPACO  =    256;   APACO  = 16.0  distance and # of slots for P.C.
   PSTRESS=    0.0 pullay stress

  Mass of Ions in am
   POMASS =  28.09
  Ionic Valenz
   ZVAL   =   4.00
  Atomic Wigner-Seitz radii
   RWIGS  =  -1.00
  virtual crystal weights 
   VCA    =   1.00
   NELECT =       8.0000    total number of electrons
   NUPDOWN=      -1.0000    fix difference up-down

 DOS related values:
   EMIN   =  10.00;   EMAX   =-10.00  energy-range for DOS
   EFERMI =   0.00
   ISMEAR =     0;   SIGMA  =   0.10  broadening in eV -4-tet -1-fermi 0-gaus

 Electronic relaxation 2 (details)
   IALGO  =     38    algorithm
   LDIAG  =      T    sub-space diagonalisation (order eigenvalues)
   LSUBROT=      F    optimize rotation matrix (better conditioning)
   TURBO    =      0    0=normal 1=particle mesh
   IRESTART =      0    0=no restart 2=restart with 2 vectors
   NREBOOT  =      0    no. of reboots
   NMIN     =      0    reboot dimension
   EREF     =   0.00    reference energy to select bands
   IMIX   =      4    mixing-type and parameters
     AMIX     =   0.40;   BMIX     =  1.00
     AMIX_MAG =   1.60;   BMIX_MAG =  1.00
     AMIN     =   0.10
     WC   =   100.;   INIMIX=   1;  MIXPRE=   1;  MAXMIX= -45

 Intra band minimization:
   WEIMIN = 0.0000     energy-eigenvalue tresh-hold
   EBREAK =  0.16E-07  absolut break condition
   DEPER  =   0.30     relativ break condition  

   TIME   =   0.40     timestep for ELM

  volume/ion in A,a.u.               =      24.39       164.59
  Fermi-wavevector in a.u.,A,eV,Ry     =   0.896114  1.693411 10.925766  0.803021
  Thomas-Fermi vector in A             =   2.018532
 
 Write flags
   LWAVE  =      T    write WAVECAR
   LCHARG =      T    write CHGCAR
   LVTOT  =      F    write LOCPOT, total local potential
   LVHAR  =      F    write LOCPOT, Hartree potential only
   LELF   =      F    write electronic localiz. function (ELF)
   LORBIT =      0    0 simple, 1 ext, 2 COOP (PROOUT)


 Dipole corrections
   LMONO  =      F    monopole corrections only (constant potential shift)
   LDIPOL =      F    correct potential (dipole corrections)
   IDIPOL =      0    1-x, 2-y, 3-z, 4-all directions 
   EPSILON=  1.0000000 bulk dielectric constant

 Exchange correlation treatment:
   GGA     =    --    GGA type
   LEXCH   =     8    internal setting for exchange type
   VOSKOWN=      0    Vosko Wilk Nusair interpolation
   LHFCALC =     F    Hartree Fock is set to
   LHFONE  =     F    Hartree Fock one center treatment
   AEXX    =    0.0000 exact exchange contribution

 Linear response parameters
   LEPSILON=     F    determine dielectric tensor
   LRPA    =     F    only Hartree local field effects (RPA)
   LNABLA  =     F    use nabla operator in PAW spheres
   LVEL    =     F    velocity operator in full k-point grid
   LINTERFAST=   F  fast interpolation
   KINTER  =     0    interpolate to denser k-point grid
   CSHIFT  =0.1000    complex shift for real part using Kramers Kronig
   OMEGAMAX=  -1.0    maximum frequency
   DEG_THRESHOLD= 0.2000000E-02 threshold for treating states as degnerate
   RTIME   =    0.100 relaxation time in fs

 Orbital magnetization related:
   ORBITALMAG=     F  switch on orbital magnetization
   LCHIMAG   =     F  perturbation theory with respect to B field
   DQ        =  0.001000  dq finite difference perturbation B field



--------------------------------------------------------------------------------------------------------


 Static calculation
 charge density and potential will be updated during run
 non-spin polarized calculation
 Variant of blocked Davidson
 Davidson routine will perform the subspace rotation
 perform sub-space diagonalisation
    after iterative eigenvector-optimisation
 modified Broyden-mixing scheme, WC =      100.0
 initial mixing is a Kerker type mixing with AMIX =  0.4000 and BMIX =      1.0000
 Hartree-type preconditioning will be used
 using additional bands           12
 reciprocal scheme for non local part
 use partial core corrections
 calculate Harris-corrections to forces 
   (improved forces if not selfconsistent)
 use gradient corrections 
 use of overlap-Matrix (Vanderbilt PP)
 Gauss-broadening in eV      SIGMA  =   0.10


--------------------------------------------------------------------------------------------------------


  energy-cutoff  :      240.00
  volume of cell :       48.78
      direct lattice vectors                 reciprocal lattice vectors
     0.000000000  2.900000000  2.900000000    -0.172413793  0.172413793  0.172413793
     2.900000000  0.000000000  2.900000000     0.172413793 -0.172413793  0.172413793
     2.900000000  2.900000000  0.000000000     0.172413793  0.172413793 -0.172413793

  length of vectors
     4.101219331  4.101219331  4.101219331     0.298629450  0.298629450  0.298629450


 
 k-points in units of 2pi/SCALE and weight: k-points                                
   0.00000000  0.00000000  0.00000000       0.000
  -0.06666667  0.06666667  0.06666667       0.002
  -0.13333333  0.13333333  0.13333333       0.002
  -0.20000000  0.20000000  0.20000000       0.002
  -0.26666667  0.26666667  0.26666667       0.002
  -0.33333333  0.33333333  0.33333333       0.002
  -0.40000000  0.40000000  0.40000000       0.002
  -0.46666667  0.46666667  0.46666667       0.002
   0.00000000  0.00000000  0.13333333       0.002
  -0.06666667  0.06666667  0.20000000       0.007
  -0.13333333  0.13333333  0.26666667       0.007
  -0.20000000  0.20000000  0.33333333       0.007
  -0.26666667  0.26666667  0.40000000       0.007
  -0.33333333  0.33333333  0.46666667       0.007
  -0.40000000  0.40000000  0.53333333       0.007
   0.53333333 -0.53333333 -0.40000000       0.007
   0.46666667 -0.46666667 -0.33333333       0.007
   0.40000000 -0.40000000 -0.26666667       0.007
   0.33333333 -0.33333333 -0.20000000       0.007
   0.26666667 -0.26666667 -0.13333333       0.007
   0.20000000 -0.20000000 -0.06666667       0.007
   0.13333333 -0.13333333  0.00000000       0.004
   0.00000000  0.00000000  0.26666667       0.002
  -0.06666667  0.06666667  0.33333333       0.007
  -0.13333333  0.13333333  0.40000000       0.007
  -0.20000000  0.20000000  0.46666667       0.007
  -0.26666667  0.26666667  0.53333333       0.007
  -0.33333333  0.33333333  0.60000000       0.007
   0.60000000 -0.60000000 -0.33333333       0.007
   0.53333333 -0.53333333 -0.26666667       0.007
   0.46666667 -0.46666667 -0.20000000       0.007
   0.40000000 -0.40000000 -0.13333333       0.007
   0.33333333 -0.33333333 -0.06666667       0.007
   0.26666667 -0.26666667  0.00000000       0.004
   0.00000000  0.00000000  0.40000000       0.002
  -0.06666667  0.06666667  0.46666667       0.007
  -0.13333333  0.13333333  0.53333333       0.007
  -0.20000000  0.20000000  0.60000000       0.007
  -0.26666667  0.26666667  0.66666667       0.007
   0.66666667 -0.66666667 -0.26666667       0.007
   0.60000000 -0.60000000 -0.20000000       0.007
   0.53333333 -0.53333333 -0.13333333       0.007
   0.46666667 -0.46666667 -0.06666667       0.007
   0.40000000 -0.40000000  0.00000000       0.004
   0.00000000  0.00000000  0.53333333       0.002
  -0.06666667  0.06666667  0.60000000       0.007
  -0.13333333  0.13333333  0.66666667       0.007
  -0.20000000  0.20000000  0.73333333       0.007
   0.73333333 -0.73333333 -0.20000000       0.007
   0.66666667 -0.66666667 -0.13333333       0.007
   0.60000000 -0.60000000 -0.06666667       0.007
   0.53333333 -0.53333333  0.00000000       0.004
   0.00000000  0.00000000  0.66666667       0.002
  -0.06666667  0.06666667  0.73333333       0.007
  -0.13333333  0.13333333  0.80000000       0.007
   0.80000000 -0.80000000 -0.13333333       0.007
   0.73333333 -0.73333333 -0.06666667       0.007
   0.66666667 -0.66666667  0.00000000       0.004
   0.00000000  0.00000000  0.80000000       0.002
  -0.06666667  0.06666667  0.86666667       0.007
   0.86666667 -0.86666667 -0.06666667       0.007
   0.80000000 -0.80000000  0.00000000       0.004
   0.00000000  0.00000000  0.93333333       0.002
   0.93333333 -0.93333333  0.00000000       0.004
   0.00000000  0.13333333  0.26666667       0.007
  -0.06666667  0.20000000  0.33333333       0.014
  -0.13333333  0.26666667  0.40000000       0.014
  -0.20000000  0.33333333  0.46666667       0.014
  -0.26666667  0.40000000  0.53333333       0.014
   0.66666667 -0.53333333 -0.40000000       0.014
   0.00000000  0.13333333  0.40000000       0.007
  -0.06666667  0.20000000  0.46666667       0.014
  -0.13333333  0.26666667  0.53333333       0.014
  -0.20000000  0.33333333  0.60000000       0.014
   0.73333333 -0.60000000 -0.33333333       0.014
   0.66666667 -0.53333333 -0.26666667       0.014
   0.60000000 -0.46666667 -0.20000000       0.014
   0.53333333 -0.40000000 -0.13333333       0.014
   0.46666667 -0.33333333 -0.06666667       0.014
   0.40000000 -0.26666667  0.00000000       0.007
   0.00000000  0.13333333  0.53333333       0.007
  -0.06666667  0.20000000  0.60000000       0.014
  -0.13333333  0.26666667  0.66666667       0.014
   0.80000000 -0.66666667 -0.26666667       0.014
   0.73333333 -0.60000000 -0.20000000       0.014
   0.66666667 -0.53333333 -0.13333333       0.014
   0.60000000 -0.46666667 -0.06666667       0.014
   0.53333333 -0.40000000 -0.00000000       0.007
  -0.00000000  0.13333333  0.66666667       0.007
  -0.06666667  0.20000000  0.73333333       0.014
   0.86666667 -0.73333333 -0.20000000       0.014
   0.80000000 -0.66666667 -0.13333333       0.014
   0.73333333 -0.60000000 -0.06666667       0.014
   0.66666667 -0.53333333 -0.00000000       0.007
   0.00000000  0.13333333  0.80000000       0.007
   0.93333333 -0.80000000 -0.13333333       0.014
   0.86666667 -0.73333333 -0.06666667       0.014
   0.80000000 -0.66666667  0.00000000       0.007
   1.00000000 -0.86666667 -0.06666667       0.007
   0.93333333 -0.80000000 -0.00000000       0.007
  -0.00000000  0.26666667  0.53333333       0.007
  -0.06666667  0.33333333  0.60000000       0.014
   0.86666667 -0.60000000 -0.33333333       0.014
   0.80000000 -0.53333333 -0.26666667       0.014
  -0.00000000  0.26666667  0.66666667       0.007
   0.93333333 -0.66666667 -0.26666667       0.014
   0.86666667 -0.60000000 -0.20000000       0.014
   0.80000000 -0.53333333 -0.13333333       0.014
   0.73333333 -0.46666667 -0.06666667       0.014
   0.66666667 -0.40000000 -0.00000000       0.007
   1.00000000 -0.73333333 -0.20000000       0.007
   0.93333333 -0.66666667 -0.13333333       0.014
   0.86666667 -0.60000000 -0.06666667       0.014
   0.80000000 -0.53333333  0.00000000       0.007
   1.00000000 -0.73333333 -0.06666667       0.007
   0.93333333 -0.66666667  0.00000000       0.007
   1.00000000 -0.60000000 -0.20000000       0.007
   0.93333333 -0.53333333 -0.13333333       0.014
   1.00000000 -0.60000000 -0.06666667       0.007
   0.93333333 -0.53333333  0.00000000       0.007
 
 k-points in reciprocal lattice and weights: k-points                                
   0.00000000  0.00000000  0.00000000       0.000
   0.06666667  0.00000000  0.00000000       0.002
   0.13333333  0.00000000  0.00000000       0.002
   0.20000000  0.00000000  0.00000000       0.002
   0.26666667  0.00000000  0.00000000       0.002
   0.33333333  0.00000000  0.00000000       0.002
   0.40000000  0.00000000  0.00000000       0.002
   0.46666667  0.00000000  0.00000000       0.002
   0.06666667  0.06666667  0.00000000       0.002
   0.13333333  0.06666667  0.00000000       0.007
   0.20000000  0.06666667  0.00000000       0.007
   0.26666667  0.06666667  0.00000000       0.007
   0.33333333  0.06666667  0.00000000       0.007
   0.40000000  0.06666667  0.00000000       0.007
   0.46666667  0.06666667  0.00000000       0.007
  -0.46666667  0.06666667  0.00000000       0.007
  -0.40000000  0.06666667  0.00000000       0.007
  -0.33333333  0.06666667  0.00000000       0.007
  -0.26666667  0.06666667  0.00000000       0.007
  -0.20000000  0.06666667  0.00000000       0.007
  -0.13333333  0.06666667  0.00000000       0.007
  -0.06666667  0.06666667  0.00000000       0.004
   0.13333333  0.13333333  0.00000000       0.002
   0.20000000  0.13333333  0.00000000       0.007
   0.26666667  0.13333333  0.00000000       0.007
   0.33333333  0.13333333  0.00000000       0.007
   0.40000000  0.13333333  0.00000000       0.007
   0.46666667  0.13333333  0.00000000       0.007
  -0.46666667  0.13333333  0.00000000       0.007
  -0.40000000  0.13333333  0.00000000       0.007
  -0.33333333  0.13333333  0.00000000       0.007
  -0.26666667  0.13333333  0.00000000       0.007
  -0.20000000  0.13333333  0.00000000       0.007
  -0.13333333  0.13333333  0.00000000       0.004
   0.20000000  0.20000000  0.00000000       0.002
   0.26666667  0.20000000  0.00000000       0.007
   0.33333333  0.20000000  0.00000000       0.007
   0.40000000  0.20000000  0.00000000       0.007
   0.46666667  0.20000000  0.00000000       0.007
  -0.46666667  0.20000000  0.00000000       0.007
  -0.40000000  0.20000000  0.00000000       0.007
  -0.33333333  0.20000000  0.00000000       0.007
  -0.26666667  0.20000000  0.00000000       0.007
  -0.20000000  0.20000000  0.00000000       0.004
   0.26666667  0.26666667  0.00000000       0.002
   0.33333333  0.26666667  0.00000000       0.007
   0.40000000  0.26666667  0.00000000       0.007
   0.46666667  0.26666667  0.00000000       0.007
  -0.46666667  0.26666667  0.00000000       0.007
  -0.40000000  0.26666667  0.00000000       0.007
  -0.33333333  0.26666667  0.00000000       0.007
  -0.26666667  0.26666667  0.00000000       0.004
   0.33333333  0.33333333  0.00000000       0.002
   0.40000000  0.33333333  0.00000000       0.007
   0.46666667  0.33333333  0.00000000       0.007
  -0.46666667  0.33333333  0.00000000       0.007
  -0.40000000  0.33333333  0.00000000       0.007
  -0.33333333  0.33333333  0.00000000       0.004
   0.40000000  0.40000000  0.00000000       0.002
   0.46666667  0.40000000  0.00000000       0.007
  -0.46666667  0.40000000  0.00000000       0.007
  -0.40000000  0.40000000  0.00000000       0.004
   0.46666667  0.46666667  0.00000000       0.002
  -0.46666667  0.46666667  0.00000000       0.004
   0.20000000  0.13333333  0.06666667       0.007
   0.26666667  0.13333333  0.06666667       0.014
   0.33333333  0.13333333  0.06666667       0.014
   0.40000000  0.13333333  0.06666667       0.014
   0.46666667  0.13333333  0.06666667       0.014
  -0.46666667  0.13333333  0.06666667       0.014
   0.26666667  0.20000000  0.06666667       0.007
   0.33333333  0.20000000  0.06666667       0.014
   0.40000000  0.20000000  0.06666667       0.014
   0.46666667  0.20000000  0.06666667       0.014
  -0.46666667  0.20000000  0.06666667       0.014
  -0.40000000  0.20000000  0.06666667       0.014
  -0.33333333  0.20000000  0.06666667       0.014
  -0.26666667  0.20000000  0.06666667       0.014
  -0.20000000  0.20000000  0.06666667       0.014
  -0.13333333  0.20000000  0.06666667       0.007
   0.33333333  0.26666667  0.06666667       0.007
   0.40000000  0.26666667  0.06666667       0.014
   0.46666667  0.26666667  0.06666667       0.014
  -0.46666667  0.26666667  0.06666667       0.014
  -0.40000000  0.26666667  0.06666667       0.014
  -0.33333333  0.26666667  0.06666667       0.014
  -0.26666667  0.26666667  0.06666667       0.014
  -0.20000000  0.26666667  0.06666667       0.007
   0.40000000  0.33333333  0.06666667       0.007
   0.46666667  0.33333333  0.06666667       0.014
  -0.46666667  0.33333333  0.06666667       0.014
  -0.40000000  0.33333333  0.06666667       0.014
  -0.33333333  0.33333333  0.06666667       0.014
  -0.26666667  0.33333333  0.06666667       0.007
   0.46666667  0.40000000  0.06666667       0.007
  -0.46666667  0.40000000  0.06666667       0.014
  -0.40000000  0.40000000  0.06666667       0.014
  -0.33333333  0.40000000  0.06666667       0.007
  -0.46666667  0.46666667  0.06666667       0.007
  -0.40000000  0.46666667  0.06666667       0.007
   0.40000000  0.26666667  0.13333333       0.007
   0.46666667  0.26666667  0.13333333       0.014
  -0.46666667  0.26666667  0.13333333       0.014
  -0.40000000  0.26666667  0.13333333       0.014
   0.46666667  0.33333333  0.13333333       0.007
  -0.46666667  0.33333333  0.13333333       0.014
  -0.40000000  0.33333333  0.13333333       0.014
  -0.33333333  0.33333333  0.13333333       0.014
  -0.26666667  0.33333333  0.13333333       0.014
  -0.20000000  0.33333333  0.13333333       0.007
  -0.46666667  0.40000000  0.13333333       0.007
  -0.40000000  0.40000000  0.13333333       0.014
  -0.33333333  0.40000000  0.13333333       0.014
  -0.26666667  0.40000000  0.13333333       0.007
  -0.40000000  0.46666667  0.13333333       0.007
  -0.33333333  0.46666667  0.13333333       0.007
  -0.40000000  0.40000000  0.20000000       0.007
  -0.33333333  0.40000000  0.20000000       0.014
  -0.33333333  0.46666667  0.20000000       0.007
  -0.26666667  0.46666667  0.20000000       0.007
 
 position of ions in fractional coordinates (direct lattice) 
   0.87500000  0.87500000  0.87500000
   0.12500000  0.12500000  0.12500000
 
 position of ions in cartesian coordinates  (Angst):
   5.07500000  5.07500000  5.07500000
   0.72500000  0.72500000  0.72500000
 


--------------------------------------------------------------------------------------------------------


 k-point  1 :   0.0000 0.0000 0.0000  plane waves:     411
 k-point  2 :   0.0667 0.0000 0.0000  plane waves:     411
 k-point  3 :   0.1333 0.0000 0.0000  plane waves:     408
 k-point  4 :   0.2000 0.0000 0.0000  plane waves:     402
 k-point  5 :   0.2667 0.0000 0.0000  plane waves:     407
 k-point  6 :   0.3333 0.0000 0.0000  plane waves:     419
 k-point  7 :   0.4000 0.0000 0.0000  plane waves:     413
 k-point  8 :   0.4667 0.0000 0.0000  plane waves:     410
 k-point  9 :   0.0667 0.0667 0.0000  plane waves:     411
 k-point 10 :   0.1333 0.0667 0.0000  plane waves:     406
 k-point 11 :   0.2000 0.0667 0.0000  plane waves:     404
 k-point 12 :   0.2667 0.0667 0.0000  plane waves:     405
 k-point 13 :   0.3333 0.0667 0.0000  plane waves:     411
 k-point 14 :   0.4000 0.0667 0.0000  plane waves:     413
 k-point 15 :   0.4667 0.0667 0.0000  plane waves:     411
 k-point 16 :  -0.4667 0.0667 0.0000  plane waves:     409
 k-point 17 :  -0.4000 0.0667 0.0000  plane waves:     412
 k-point 18 :  -0.3333 0.0667 0.0000  plane waves:     411
 k-point 19 :  -0.2667 0.0667 0.0000  plane waves:     408
 k-point 20 :  -0.2000 0.0667 0.0000  plane waves:     407
 k-point 21 :  -0.1333 0.0667 0.0000  plane waves:     405
 k-point 22 :  -0.0667 0.0667 0.0000  plane waves:     411
 k-point 23 :   0.1333 0.1333 0.0000  plane waves:     399
 k-point 24 :   0.2000 0.1333 0.0000  plane waves:     407
 k-point 25 :   0.2667 0.1333 0.0000  plane waves:     408
 k-point 26 :   0.3333 0.1333 0.0000  plane waves:     413
 k-point 27 :   0.4000 0.1333 0.0000  plane waves:     419
 k-point 28 :   0.4667 0.1333 0.0000  plane waves:     414
 k-point 29 :  -0.4667 0.1333 0.0000  plane waves:     412
 k-point 30 :  -0.4000 0.1333 0.0000  plane waves:     408
 k-point 31 :  -0.3333 0.1333 0.0000  plane waves:     410
 k-point 32 :  -0.2667 0.1333 0.0000  plane waves:     407
 k-point 33 :  -0.2000 0.1333 0.0000  plane waves:     408
 k-point 34 :  -0.1333 0.1333 0.0000  plane waves:     399
 k-point 35 :   0.2000 0.2000 0.0000  plane waves:     415
 k-point 36 :   0.2667 0.2000 0.0000  plane waves:     419
 k-point 37 :   0.3333 0.2000 0.0000  plane waves:     414
 k-point 38 :   0.4000 0.2000 0.0000  plane waves:     417
 k-point 39 :   0.4667 0.2000 0.0000  plane waves:     414
 k-point 40 :  -0.4667 0.2000 0.0000  plane waves:     413
 k-point 41 :  -0.4000 0.2000 0.0000  plane waves:     410
 k-point 42 :  -0.3333 0.2000 0.0000  plane waves:     414
 k-point 43 :  -0.2667 0.2000 0.0000  plane waves:     410
 k-point 44 :  -0.2000 0.2000 0.0000  plane waves:     409
 k-point 45 :   0.2667 0.2667 0.0000  plane waves:     415
 k-point 46 :   0.3333 0.2667 0.0000  plane waves:     419
 k-point 47 :   0.4000 0.2667 0.0000  plane waves:     418
 k-point 48 :   0.4667 0.2667 0.0000  plane waves:     417
 k-point 49 :  -0.4667 0.2667 0.0000  plane waves:     413
 k-point 50 :  -0.4000 0.2667 0.0000  plane waves:     406
 k-point 51 :  -0.3333 0.2667 0.0000  plane waves:     408
 k-point 52 :  -0.2667 0.2667 0.0000  plane waves:     411
 k-point 53 :   0.3333 0.3333 0.0000  plane waves:     419
 k-point 54 :   0.4000 0.3333 0.0000  plane waves:     417
 k-point 55 :   0.4667 0.3333 0.0000  plane waves:     418
 k-point 56 :  -0.4667 0.3333 0.0000  plane waves:     417
 k-point 57 :  -0.4000 0.3333 0.0000  plane waves:     411
 k-point 58 :  -0.3333 0.3333 0.0000  plane waves:     403
 k-point 59 :   0.4000 0.4000 0.0000  plane waves:     424
 k-point 60 :   0.4667 0.4000 0.0000  plane waves:     418
 k-point 61 :  -0.4667 0.4000 0.0000  plane waves:     418
 k-point 62 :  -0.4000 0.4000 0.0000  plane waves:     411
 k-point 63 :   0.4667 0.4667 0.0000  plane waves:     412
 k-point 64 :  -0.4667 0.4667 0.0000  plane waves:     420
 k-point 65 :   0.2000 0.1333 0.0667  plane waves:     406
 k-point 66 :   0.2667 0.1333 0.0667  plane waves:     407
 k-point 67 :   0.3333 0.1333 0.0667  plane waves:     410
 k-point 68 :   0.4000 0.1333 0.0667  plane waves:     411
 k-point 69 :   0.4667 0.1333 0.0667  plane waves:     412
 k-point 70 :  -0.4667 0.1333 0.0667  plane waves:     409
 k-point 71 :   0.2667 0.2000 0.0667  plane waves:     409
 k-point 72 :   0.3333 0.2000 0.0667  plane waves:     412
 k-point 73 :   0.4000 0.2000 0.0667  plane waves:     407
 k-point 74 :   0.4667 0.2000 0.0667  plane waves:     412
 k-point 75 :  -0.4667 0.2000 0.0667  plane waves:     413
 k-point 76 :  -0.4000 0.2000 0.0667  plane waves:     413
 k-point 77 :  -0.3333 0.2000 0.0667  plane waves:     415
 k-point 78 :  -0.2667 0.2000 0.0667  plane waves:     414
 k-point 79 :  -0.2000 0.2000 0.0667  plane waves:     411
 k-point 80 :  -0.1333 0.2000 0.0667  plane waves:     410
 k-point 81 :   0.3333 0.2667 0.0667  plane waves:     417
 k-point 82 :   0.4000 0.2667 0.0667  plane waves:     414
 k-point 83 :   0.4667 0.2667 0.0667  plane waves:     412
 k-point 84 :  -0.4667 0.2667 0.0667  plane waves:     411
 k-point 85 :  -0.4000 0.2667 0.0667  plane waves:     410
 k-point 86 :  -0.3333 0.2667 0.0667  plane waves:     411
 k-point 87 :  -0.2667 0.2667 0.0667  plane waves:     412
 k-point 88 :  -0.2000 0.2667 0.0667  plane waves:     412
 k-point 89 :   0.4000 0.3333 0.0667  plane waves:     419
 k-point 90 :   0.4667 0.3333 0.0667  plane waves:     416
 k-point 91 :  -0.4667 0.3333 0.0667  plane waves:     414
 k-point 92 :  -0.4000 0.3333 0.0667  plane waves:     414
 k-point 93 :  -0.3333 0.3333 0.0667  plane waves:     412
 k-point 94 :  -0.2667 0.3333 0.0667  plane waves:     413
 k-point 95 :   0.4667 0.4000 0.0667  plane waves:     416
 k-point 96 :  -0.4667 0.4000 0.0667  plane waves:     416
 k-point 97 :  -0.4000 0.4000 0.0667  plane waves:     417
 k-point 98 :  -0.3333 0.4000 0.0667  plane waves:     413
 k-point 99 :  -0.4667 0.4667 0.0667  plane waves:     413
 k-point ** :  -0.4000 0.4667 0.0667  plane waves:     418
 k-point ** :   0.4000 0.2667 0.1333  plane waves:     414
 k-point ** :   0.4667 0.2667 0.1333  plane waves:     412
 k-point ** :  -0.4667 0.2667 0.1333  plane waves:     412
 k-point ** :  -0.4000 0.2667 0.1333  plane waves:     415
 k-point ** :   0.4667 0.3333 0.1333  plane waves:     413
 k-point ** :  -0.4667 0.3333 0.1333  plane waves:     413
 k-point ** :  -0.4000 0.3333 0.1333  plane waves:     413
 k-point ** :  -0.3333 0.3333 0.1333  plane waves:     410
 k-point ** :  -0.2667 0.3333 0.1333  plane waves:     413
 k-point ** :  -0.2000 0.3333 0.1333  plane waves:     410
 k-point ** :  -0.4667 0.4000 0.1333  plane waves:     414
 k-point ** :  -0.4000 0.4000 0.1333  plane waves:     412
 k-point ** :  -0.3333 0.4000 0.1333  plane waves:     411
 k-point ** :  -0.2667 0.4000 0.1333  plane waves:     407
 k-point ** :  -0.4000 0.4667 0.1333  plane waves:     413
 k-point ** :  -0.3333 0.4667 0.1333  plane waves:     412
 k-point ** :  -0.4000 0.4000 0.2000  plane waves:     408
 k-point ** :  -0.3333 0.4000 0.2000  plane waves:     408
 k-point ** :  -0.3333 0.4667 0.2000  plane waves:     412
 k-point ** :  -0.2667 0.4667 0.2000  plane waves:     406

 maximum and minimum number of plane-waves per node :       424      399

 maximum number of plane-waves:       424
 maximum index in each direction: 
   IXMAX=    5   IYMAX=    5   IZMAX=    5
   IXMIN=   -5   IYMIN=   -5   IZMIN=   -5

 WARNING: aliasing errors must be expected set NGX to  22 to avoid them
 WARNING: aliasing errors must be expected set NGY to  22 to avoid them
 WARNING: aliasing errors must be expected set NGZ to  22 to avoid them
 aliasing errors are usually negligible using standard VASP settings
 and one can safely disregard these warnings

 serial   3D FFT for wavefunctions
 parallel 3D FFT for charge:
    minimum data exchange during FFTs selected (reduces bandwidth)


 total amount of memory used by VASP on root node    34560. kBytes
========================================================================

   base      :      30000. kBytes
   nonl-proj :       3331. kBytes
   fftplans  :         93. kBytes
   grid      :        270. kBytes
   one-center:          6. kBytes
   wavefun   :        860. kBytes
 
     INWAV:  cpu time    0.0000: real time    0.0000
 Broyden mixing: mesh for mixing (old mesh)
   NGX = 11   NGY = 11   NGZ = 11
  (NGX  = 32   NGY  = 32   NGZ  = 32)
  gives a total of   1331 points

 initial charge density was supplied:
 charge density of overlapping atoms calculated
 number of electron       8.0000000 magnetization 
 keeping initial charge density in first step


--------------------------------------------------------------------------------------------------------


 Maximum index for augmentation-charges          174 (set IRDMAX)


--------------------------------------------------------------------------------------------------------


 First call to EWALD:  gamma=   0.485
 Maximum number of real-space cells 3x 3x 3
 Maximum number of reciprocal cells 3x 3x 3

 FEWALD executed in parallel
    FEWALD:  cpu time    0.0020: real time    0.0021


----------------------------------------- Iteration    1(   1)  ---------------------------------------


    POTLOK:  cpu time    0.0020: real time    0.0026
    SETDIJ:  cpu time    0.0020: real time    0.0015
     EDDAV:  cpu time    0.3849: real time    0.3847
       DOS:  cpu time    0.0010: real time    0.0010
    --------------------------------------------
      LOOP:  cpu time    0.3909: real time    0.4024

 eigenvalue-minimisations  :  4096
 total energy-change (2. order) :-0.6387573E+01  (-0.2025246E+03)
 number of electron       8.0000000 magnetization 
 augmentation part        8.0000000 magnetization 

 Free energy of the ion-electron system (eV)
  ---------------------------------------------------
  alpha Z        PSCENC =         2.76051321
  Ewald energy   TEWEN  =      -213.98274834
  -Hartree energ DENC   =       -14.16697611
  -exchange      EXHF   =         0.00000000
  -V(xc)+E(xc)   XCENC  =       -19.33173789
  PAW double counting   =        65.95520812      -30.76852678
  entropy T*S    EENTRO =        -0.00071610
  eigenvalues    EBANDS =        -2.97414216
  atomic energy  EATOM  =       206.12155316
  Solvation  Ediel_sol  =         0.00000000
  ---------------------------------------------------
  free energy    TOTEN  =        -6.38757289 eV

  energy without entropy =       -6.38685679  energy(sigma->0) =       -6.38721484


--------------------------------------------------------------------------------------------------------




----------------------------------------- Iteration    1(   2)  ---------------------------------------


     EDDAV:  cpu time    0.5839: real time    0.5841
       DOS:  cpu time    0.0010: real time    0.0006
    --------------------------------------------
      LOOP:  cpu time    0.5849: real time    0.5894

 eigenvalue-minimisations  :  5648
 total energy-change (2. order) :-0.4206244E+01  (-0.4194738E+01)
 number of electron       8.0000000 magnetization 
 augmentation part        8.0000000 magnetization 

 Free energy of the ion-electron system (eV)
  ---------------------------------------------------
  alpha Z        PSCENC =         2.76051321
  Ewald energy   TEWEN  =      -213.98274834
  -Hartree energ DENC   =       -14.16697611
  -exchange      EXHF   =         0.00000000
  -V(xc)+E(xc)   XCENC  =       -19.33173789
  PAW double counting   =        65.95520812      -30.76852678
  entropy T*S    EENTRO =        -0.00000000
  eigenvalues    EBANDS =        -7.18110242
  atomic energy  EATOM  =       206.12155316
  Solvation  Ediel_sol  =         0.00000000
  ---------------------------------------------------
  free energy    TOTEN  =       -10.59381705 eV

  energy without entropy =      -10.59381705  energy(sigma->0) =      -10.59381705


--------------------------------------------------------------------------------------------------------




----------------------------------------- Iteration    1(   3)  ---------------------------------------


     EDDAV:  cpu time    0.4239: real time    0.4243
       DOS:  cpu time    0.0000: real time    0.0005
    --------------------------------------------
      LOOP:  cpu time    0.4249: real time    0.4293

 eigenvalue-minimisations  :  4352
 total energy-change (2. order) :-0.2240243E-01  (-0.2240243E-01)
 number of electron       8.0000000 magnetization 
 augmentation part        8.0000000 magnetization 

 Free energy of the ion-electron system (eV)
  ---------------------------------------------------
  alpha Z        PSCENC =         2.76051321
  Ewald energy   TEWEN  =      -213.98274834
  -Hartree energ DENC   =       -14.16697611
  -exchange      EXHF   =         0.00000000
  -V(xc)+E(xc)   XCENC  =       -19.33173789
  PAW double counting   =        65.95520812      -30.76852678
  entropy T*S    EENTRO =        -0.00000000
  eigenvalues    EBANDS =        -7.20350485
  atomic energy  EATOM  =       206.12155316
  Solvation  Ediel_sol  =         0.00000000
  ---------------------------------------------------
  free energy    TOTEN  =       -10.61621948 eV

  energy without entropy =      -10.61621948  energy(sigma->0) =      -10.61621948


--------------------------------------------------------------------------------------------------------




----------------------------------------- Iteration    1(   4)  ---------------------------------------


     EDDAV:  cpu time    0.8459: real time    0.8456
       DOS:  cpu time    0.0000: real time    0.0005
    --------------------------------------------
      LOOP:  cpu time    0.8469: real time    0.8550

 eigenvalue-minimisations  :  7024
 total energy-change (2. order) :-0.4698740E-04  (-0.4698764E-04)
 number of electron       8.0000000 magnetization 
 augmentation part        8.0000000 magnetization 

 Free energy of the ion-electron system (eV)
  ---------------------------------------------------
  alpha Z        PSCENC =         2.76051321
  Ewald energy   TEWEN  =      -213.98274834
  -Hartree energ DENC   =       -14.16697611
  -exchange      EXHF   =         0.00000000
  -V(xc)+E(xc)   XCENC  =       -19.33173789
  PAW double counting   =        65.95520812      -30.76852678
  entropy T*S    EENTRO =        -0.00000000
  eigenvalues    EBANDS =        -7.20355184
  atomic energy  EATOM  =       206.12155316
  Solvation  Ediel_sol  =         0.00000000
  ---------------------------------------------------
  free energy    TOTEN  =       -10.61626646 eV

  energy without entropy =      -10.61626646  energy(sigma->0) =      -10.61626646


--------------------------------------------------------------------------------------------------------




----------------------------------------- Iteration    1(   5)  ---------------------------------------


     EDDAV:  cpu time    0.4279: real time    0.4286
       DOS:  cpu time    0.0010: real time    0.0006
    CHARGE:  cpu time    0.0090: real time    0.0085
    MIXING:  cpu time    0.0000: real time    0.0003
    --------------------------------------------
      LOOP:  cpu time    0.4389: real time    0.4425

 eigenvalue-minimisations  :  4384
 total energy-change (2. order) :-0.2065860E-08  (-0.2065742E-08)
 number of electron       7.9999997 magnetization 
 augmentation part       -0.4646094 magnetization 

 Broyden mixing:
  rms(total) = 0.25321E+00    rms(broyden)= 0.25320E+00
  rms(prec ) = 0.69572E+00
  weight for this iteration     100.00

 Free energy of the ion-electron system (eV)
  ---------------------------------------------------
  alpha Z        PSCENC =         2.76051321
  Ewald energy   TEWEN  =      -213.98274834
  -Hartree energ DENC   =       -14.16697611
  -exchange      EXHF   =         0.00000000
  -V(xc)+E(xc)   XCENC  =       -19.33173789
  PAW double counting   =        65.95520812      -30.76852678
  entropy T*S    EENTRO =        -0.00000000
  eigenvalues    EBANDS =        -7.20355184
  atomic energy  EATOM  =       206.12155316
  Solvation  Ediel_sol  =         0.00000000
  ---------------------------------------------------
  free energy    TOTEN  =       -10.61626647 eV

  energy without entropy =      -10.61626647  energy(sigma->0) =      -10.61626647


--------------------------------------------------------------------------------------------------------




----------------------------------------- Iteration    1(   6)  ---------------------------------------


    POTLOK:  cpu time    0.0020: real time    0.0019
    SETDIJ:  cpu time    0.0010: real time    0.0013
     EDDAV:  cpu time    0.5559: real time    0.5552
       DOS:  cpu time    0.0000: real time    0.0006
    CHARGE:  cpu time    0.0090: real time    0.0084
    MIXING:  cpu time    0.0000: real time    0.0003
    --------------------------------------------
      LOOP:  cpu time    0.5679: real time    0.5761

 eigenvalue-minimisations  :  5232
 total energy-change (2. order) : 0.5732303E-01  (-0.3138621E-02)
 number of electron       7.9999997 magnetization 
 augmentation part       -0.4616128 magnetization 

 Broyden mixing:
  rms(total) = 0.15409E+00    rms(broyden)= 0.15409E+00
  rms(prec ) = 0.42386E+00
  weight for this iteration     100.00

 eigenvalues of (default mixing * dielectric matrix)
  average eigenvalue GAMMA=   2.5378
  2.5378

 Free energy of the ion-electron system (eV)
  ---------------------------------------------------
  alpha Z        PSCENC =         2.76051321
  Ewald energy   TEWEN  =      -213.98274834
  -Hartree energ DENC   =       -15.31111068
  -exchange      EXHF   =         0.00000000
  -V(xc)+E(xc)   XCENC  =       -19.15214338
  PAW double counting   =        67.94891393      -32.80976798
  entropy T*S    EENTRO =        -0.00000000
  eigenvalues    EBANDS =        -6.13415336
  atomic energy  EATOM  =       206.12155316
  Solvation  Ediel_sol  =         0.00000000
  ---------------------------------------------------
  free energy    TOTEN  =       -10.55894344 eV

  energy without entropy =      -10.55894344  energy(sigma->0) =      -10.55894344


--------------------------------------------------------------------------------------------------------




----------------------------------------- Iteration    1(   7)  ---------------------------------------


    POTLOK:  cpu time    0.0020: real time    0.0019
    SETDIJ:  cpu time    0.0010: real time    0.0013
     EDDAV:  cpu time    0.6319: real time    0.6316
       DOS:  cpu time    0.0000: real time    0.0005
    CHARGE:  cpu time    0.0080: real time    0.0084
    MIXING:  cpu time    0.0000: real time    0.0002
    --------------------------------------------
      LOOP:  cpu time    0.6439: real time    0.6486

 eigenvalue-minimisations  :  5776
 total energy-change (2. order) : 0.3156039E-01  (-0.7194392E-02)
 number of electron       7.9999997 magnetization 
 augmentation part       -0.4582102 magnetization 

 Broyden mixing:
  rms(total) = 0.11065E-01    rms(broyden)= 0.11065E-01
  rms(prec ) = 0.27832E-01
  weight for this iteration     100.00

 eigenvalues of (default mixing * dielectric matrix)
  average eigenvalue GAMMA=   2.5070
  2.5070  2.5070

 Free energy of the ion-electron system (eV)
  ---------------------------------------------------
  alpha Z        PSCENC =         2.76051321
  Ewald energy   TEWEN  =      -213.98274834
  -Hartree energ DENC   =       -17.32813118
  -exchange      EXHF   =         0.00000000
  -V(xc)+E(xc)   XCENC  =       -18.83111181
  PAW double counting   =        70.49986919      -35.41959997
  entropy T*S    EENTRO =        -0.00000000
  eigenvalues    EBANDS =        -4.34772732
  atomic energy  EATOM  =       206.12155316
  Solvation  Ediel_sol  =         0.00000000
  ---------------------------------------------------
  free energy    TOTEN  =       -10.52738305 eV

  energy without entropy =      -10.52738305  energy(sigma->0) =      -10.52738305


--------------------------------------------------------------------------------------------------------




----------------------------------------- Iteration    1(   8)  ---------------------------------------


    POTLOK:  cpu time    0.0020: real time    0.0019
    SETDIJ:  cpu time    0.0010: real time    0.0013
     EDDAV:  cpu time    0.4819: real time    0.4815
       DOS:  cpu time    0.0000: real time    0.0006
    CHARGE:  cpu time    0.0080: real time    0.0084
    MIXING:  cpu time    0.0000: real time    0.0002
    --------------------------------------------
      LOOP:  cpu time    0.4939: real time    0.5030

 eigenvalue-minimisations  :  4736
 total energy-change (2. order) :-0.1333059E-02  (-0.2289795E-03)
 number of electron       7.9999997 magnetization 
 augmentation part       -0.4585222 magnetization 

 Broyden mixing:
  rms(total) = 0.27474E-02    rms(broyden)= 0.27474E-02
  rms(prec ) = 0.87427E-02
  weight for this iteration     100.00

 eigenvalues of (default mixing * dielectric matrix)
  average eigenvalue GAMMA=   2.1807
  1.1392  2.3969  3.0059

 Free energy of the ion-electron system (eV)
  ---------------------------------------------------
  alpha Z        PSCENC =         2.76051321
  Ewald energy   TEWEN  =      -213.98274834
  -Hartree energ DENC   =       -17.30327238
  -exchange      EXHF   =         0.00000000
  -V(xc)+E(xc)   XCENC  =       -18.83211391
  PAW double counting   =        69.80206336      -34.70258016
  entropy T*S    EENTRO =        -0.00000000
  eigenvalues    EBANDS =        -4.39213106
  atomic energy  EATOM  =       206.12155316
  Solvation  Ediel_sol  =         0.00000000
  ---------------------------------------------------
  free energy    TOTEN  =       -10.52871611 eV

  energy without entropy =      -10.52871611  energy(sigma->0) =      -10.52871611


--------------------------------------------------------------------------------------------------------




----------------------------------------- Iteration    1(   9)  ---------------------------------------


    POTLOK:  cpu time    0.0010: real time    0.0019
    SETDIJ:  cpu time    0.0010: real time    0.0013
     EDDAV:  cpu time    0.7209: real time    0.7205
       DOS:  cpu time    0.0010: real time    0.0006
    CHARGE:  cpu time    0.0080: real time    0.0084
    MIXING:  cpu time    0.0000: real time    0.0002
    --------------------------------------------
      LOOP:  cpu time    0.7339: real time    0.7376

 eigenvalue-minimisations  :  6352
 total energy-change (2. order) :-0.1609253E-03  (-0.1844042E-04)
 number of electron       7.9999997 magnetization 
 augmentation part       -0.4585834 magnetization 

 Broyden mixing:
  rms(total) = 0.12037E-02    rms(broyden)= 0.12037E-02
  rms(prec ) = 0.31510E-02
  weight for this iteration     100.00

 eigenvalues of (default mixing * dielectric matrix)
  average eigenvalue GAMMA=   2.2648
  0.9524  3.1083  2.4992  2.4992

 Free energy of the ion-electron system (eV)
  ---------------------------------------------------
  alpha Z        PSCENC =         2.76051321
  Ewald energy   TEWEN  =      -213.98274834
  -Hartree energ DENC   =       -17.34714542
  -exchange      EXHF   =         0.00000000
  -V(xc)+E(xc)   XCENC  =       -18.82509527
  PAW double counting   =        69.70548210      -34.60321510
  entropy T*S    EENTRO =        -0.00000000
  eigenvalues    EBANDS =        -4.35822137
  atomic energy  EATOM  =       206.12155316
  Solvation  Ediel_sol  =         0.00000000
  ---------------------------------------------------
  free energy    TOTEN  =       -10.52887704 eV

  energy without entropy =      -10.52887704  energy(sigma->0) =      -10.52887704


--------------------------------------------------------------------------------------------------------




----------------------------------------- Iteration    1(  10)  ---------------------------------------


    POTLOK:  cpu time    0.0020: real time    0.0019
    SETDIJ:  cpu time    0.0010: real time    0.0013
     EDDAV:  cpu time    0.5149: real time    0.5147
       DOS:  cpu time    0.0000: real time    0.0006
    CHARGE:  cpu time    0.0090: real time    0.0084
    MIXING:  cpu time    0.0000: real time    0.0002
    --------------------------------------------
      LOOP:  cpu time    0.5279: real time    0.5358

 eigenvalue-minimisations  :  4960
 total energy-change (2. order) :-0.1279280E-04  (-0.2050991E-05)
 number of electron       7.9999997 magnetization 
 augmentation part       -0.4584710 magnetization 

 Broyden mixing:
  rms(total) = 0.24668E-03    rms(broyden)= 0.24668E-03
  rms(prec ) = 0.68791E-03
  weight for this iteration     100.00

 eigenvalues of (default mixing * dielectric matrix)
  average eigenvalue GAMMA=   2.0941
  3.3654  2.6929  2.2339  0.9461  1.2320

 Free energy of the ion-electron system (eV)
  ---------------------------------------------------
  alpha Z        PSCENC =         2.76051321
  Ewald energy   TEWEN  =      -213.98274834
  -Hartree energ DENC   =       -17.36044909
  -exchange      EXHF   =         0.00000000
  -V(xc)+E(xc)   XCENC  =       -18.82457224
  PAW double counting   =        69.77039286      -34.67026851
  entropy T*S    EENTRO =        -0.00000000
  eigenvalues    EBANDS =        -4.34331088
  atomic energy  EATOM  =       206.12155316
  Solvation  Ediel_sol  =         0.00000000
  ---------------------------------------------------
  free energy    TOTEN  =       -10.52888983 eV

  energy without entropy =      -10.52888983  energy(sigma->0) =      -10.52888983


--------------------------------------------------------------------------------------------------------




----------------------------------------- Iteration    1(  11)  ---------------------------------------


    POTLOK:  cpu time    0.0020: real time    0.0019
    SETDIJ:  cpu time    0.0010: real time    0.0013
     EDDAV:  cpu time    0.7589: real time    0.7585
       DOS:  cpu time    0.0000: real time    0.0006
    CHARGE:  cpu time    0.0080: real time    0.0084
    MIXING:  cpu time    0.0000: real time    0.0002
    --------------------------------------------
      LOOP:  cpu time    0.7709: real time    0.7755

 eigenvalue-minimisations  :  6528
 total energy-change (2. order) : 0.1011667E-05  (-0.1225713E-06)
 number of electron       7.9999997 magnetization 
 augmentation part       -0.4584921 magnetization 

 Broyden mixing:
  rms(total) = 0.43727E-04    rms(broyden)= 0.43722E-04
  rms(prec ) = 0.72631E-04
  weight for this iteration     100.00

 eigenvalues of (default mixing * dielectric matrix)
  average eigenvalue GAMMA=   2.1553
  3.3396  2.8409  2.5536  2.2286  0.9542  1.0147

 Free energy of the ion-electron system (eV)
  ---------------------------------------------------
  alpha Z        PSCENC =         2.76051321
  Ewald energy   TEWEN  =      -213.98274834
  -Hartree energ DENC   =       -17.35786824
  -exchange      EXHF   =         0.00000000
  -V(xc)+E(xc)   XCENC  =       -18.82479293
  PAW double counting   =        69.74786761      -34.64705248
  entropy T*S    EENTRO =        -0.00000000
  eigenvalues    EBANDS =        -4.34636081
  atomic energy  EATOM  =       206.12155316
  Solvation  Ediel_sol  =         0.00000000
  ---------------------------------------------------
  free energy    TOTEN  =       -10.52888882 eV

  energy without entropy =      -10.52888882  energy(sigma->0) =      -10.52888882


--------------------------------------------------------------------------------------------------------




----------------------------------------- Iteration    1(  12)  ---------------------------------------


    POTLOK:  cpu time    0.0020: real time    0.0019
    SETDIJ:  cpu time    0.0000: real time    0.0013
     EDDAV:  cpu time    0.3369: real time    0.3362
       DOS:  cpu time    0.0000: real time    0.0006
    --------------------------------------------
      LOOP:  cpu time    0.3409: real time    0.3488

 eigenvalue-minimisations  :  3344
 total energy-change (2. order) : 0.7686850E-07  (-0.4885122E-08)
 number of electron       7.9999997 magnetization 
 augmentation part       -0.4584921 magnetization 

 Free energy of the ion-electron system (eV)
  ---------------------------------------------------
  alpha Z        PSCENC =         2.76051321
  Ewald energy   TEWEN  =      -213.98274834
  -Hartree energ DENC   =       -17.35807544
  -exchange      EXHF   =         0.00000000
  -V(xc)+E(xc)   XCENC  =       -18.82477168
  PAW double counting   =        69.74767664      -34.64679397
  entropy T*S    EENTRO =        -0.00000000
  eigenvalues    EBANDS =        -4.34624233
  atomic energy  EATOM  =       206.12155316
  Solvation  Ediel_sol  =         0.00000000
  ---------------------------------------------------
  free energy    TOTEN  =       -10.52888874 eV

  energy without entropy =      -10.52888874  energy(sigma->0) =      -10.52888874


--------------------------------------------------------------------------------------------------------




 average (electrostatic) potential at core
  the test charge radii are     0.9892
  (the norm of the test charge is              1.0000)
       1 -85.3240       2 -85.3240
 
 
 
 E-fermi :   4.4148     XC(G=0):  -8.6549     alpha+bet : -9.8341


 k-point     1 :       0.0000    0.0000    0.0000
  band No.  band energies     occupation 
      1      -6.7135      2.00000
      2       4.0107      2.00000
      3       4.0107      2.00000
      4       4.0107      2.00000
      5       5.2597      0.00000
      6       6.4714      0.00000
      7       6.4714      0.00000
      8       6.4714      0.00000
      9      11.2335      0.00000
     10      11.6454      0.00000
     11      11.6454      0.00000
     12      14.6425      0.00000
     13      14.6425      0.00000
     14      14.6425      0.00000
     15      18.2667      0.00000
     16      25.1068      0.00000

 k-point     2 :       0.0667    0.0000    0.0000
  band No.  band energies     occupation 
      1      -6.6646      2.00000
      2       3.3285      2.00000
      3       3.9339      2.00000
      4       3.9339      2.00000
      5       5.6414      0.00000
      6       6.5847      0.00000
      7       6.5847      0.00000
      8       6.6926      0.00000
      9      11.4493      0.00000
     10      11.4885      0.00000
     11      11.4885      0.00000
     12      14.4519      0.00000
     13      14.9672      0.00000
     14      14.9672      0.00000
     15      18.6145      0.00000
     16      24.1339      0.00000

 k-point     3 :       0.1333    0.0000    0.0000
  band No.  band energies     occupation 
      1      -6.5190      2.00000
      2       2.2380      2.00000
      3       3.7476      2.00000
      4       3.7476      2.00000
      5       5.6882      0.00000
      6       6.8609      0.00000
      7       6.8610      0.00000
      8       7.5447      0.00000
      9      11.2075      0.00000
     10      11.2075      0.00000
     11      11.9936      0.00000
     12      14.1061      0.00000
     13      15.7698      0.00000
     14      15.7698      0.00000
     15      19.4555      0.00000
     16      22.7982      0.00000

 k-point     4 :       0.2000    0.0000    0.0000
  band No.  band energies     occupation 
      1      -6.2807      2.00000
      2       1.1367      2.00000
      3       3.5267      2.00000
      4       3.5267      2.00000
      5       5.4938      0.00000
      6       7.1636      0.00000
      7       7.1636      0.00000
      8       8.6251      0.00000
      9      11.0687      0.00000
     10      11.0687      0.00000
     11      12.4443      0.00000
     12      14.1539      0.00000
     13      16.8008      0.00000
     14      16.8008      0.00000
     15      20.2643      0.00000
     16      21.3079      0.00000

 k-point     5 :       0.2667    0.0000    0.0000
  band No.  band energies     occupation 
      1      -5.9592      2.00000
      2       0.0945      2.00000
      3       3.3220      2.00000
      4       3.3220      2.00000
      5       5.2716      0.00000
      6       7.3665      0.00000
      7       7.3666      0.00000
      8       9.7280      0.00000
      9      11.2293      0.00000
     10      11.2294      0.00000
     11      12.3807      0.00000
     12      14.9861      0.00000
     13      17.7243      0.00000
     14      17.7243      0.00000
     15      19.6490      0.00000
     16      20.0429      0.00000

 k-point     6 :       0.3333    0.0000    0.0000
  band No.  band energies     occupation 
      1      -5.5748      2.00000
      2      -0.8429      2.00000
      3       3.1562      2.00000
      4       3.1563      2.00000
      5       5.0823      0.00000
      6       7.4305      0.00000
      7       7.4306      0.00000
      8      10.7596      0.00000
      9      11.7483      0.00000
     10      11.7484      0.00000
     11      12.2359      0.00000
     12      15.9392      0.00000
     13      17.3598      0.00000
     14      17.3600      0.00000
     15      18.8067      0.00000
     16      20.2583      0.00000

 k-point     7 :       0.4000    0.0000    0.0000
  band No.  band energies     occupation 
      1      -5.1763      2.00000
      2      -1.6154      2.00000
      3       3.0431      2.00000
      4       3.0431      2.00000
      5       4.9492      0.00000
      6       7.4154      0.00000
      7       7.4154      0.00000
      8      11.3524      0.00000
      9      12.5714      0.00000
     10      12.5715      0.00000
     11      12.5965      0.00000
     12      15.8396      0.00000
     13      16.1124      0.00000
     14      16.1125      0.00000
     15      19.2219      0.00000
     16      21.5650      0.00000

 k-point     8 :       0.4667    0.0000    0.0000
  band No.  band energies     occupation 
      1      -4.8833      2.00000
      2      -2.0967      2.00000
      3       2.9856      2.00000
      4       2.9856      2.00000
      5       4.8819      0.00000
      6       7.3879      0.00000
      7       7.3880      0.00000
      8      11.4172      0.00000
      9      13.5640      0.00000
     10      13.6086      0.00000
     11      13.6087      0.00000
     12      14.8161      0.00000
     13      14.8163      0.00000
     14      14.8836      0.00000
     15      20.7116      0.00000
     16      22.6364      0.00000

 k-point     9 :       0.0667    0.0667    0.0000
  band No.  band energies     occupation 
      1      -6.6482      2.00000
      2       3.3308      2.00000
      3       3.7821      2.00000
      4       3.7821      2.00000
      5       5.9219      0.00000
      6       6.3208      0.00000
      7       6.7812      0.00000
      8       6.7813      0.00000
      9      11.1786      0.00000
     10      11.5207      0.00000
     11      11.7207      0.00000
     12      14.7637      0.00000
     13      14.7637      0.00000
     14      14.9646      0.00000
     15      18.7492      0.00000
     16      23.9380      0.00000

 k-point    10 :       0.1333    0.0667    0.0000
  band No.  band energies     occupation 
      1      -6.5346      2.00000
      2       2.4895      2.00000
      3       3.5544      2.00000
      4       3.6479      2.00000
      5       6.1180      0.00000
      6       6.3766      0.00000
      7       7.1155      0.00000
      8       7.3897      0.00000
      9      10.8026      0.00000
     10      11.6699      0.00000
     11      11.9663      0.00000
     12      14.4836      0.00000
     13      15.1896      0.00000
     14      15.7315      0.00000
     15      19.4567      0.00000
     16      22.7279      0.00000

 k-point    11 :       0.2000    0.0667    0.0000
  band No.  band energies     occupation 
      1      -6.3267      2.00000
[...]
      5       5.4457      0.00000
      6       6.1076      0.00000
      7      11.3899      0.00000
      8      11.4704      0.00000
      9      13.0262      0.00000
     10      13.6368      0.00000
     11      15.3207      0.00000
     12      16.0537      0.00000
     13      17.2588      0.00000
     14      17.4439      0.00000
     15      19.9375      0.00000
     16      20.2468      0.00000

 k-point   101 :       0.4000    0.2667    0.1333
  band No.  band energies     occupation 
      1      -5.4584      2.00000
      2      -0.4337      2.00000
      3       1.6437      2.00000
      4       2.6794      2.00000
      5       6.4370      0.00000
      6       7.1356      0.00000
      7       8.1932      0.00000
      8       9.1953      0.00000
      9      11.2991      0.00000
     10      13.5653      0.00000
     11      13.9741      0.00000
     12      15.6174      0.00000
     13      16.7119      0.00000
     14      17.8765      0.00000
     15      18.4102      0.00000
     16      20.5696      0.00000

 k-point   102 :       0.4667    0.2667    0.1333
  band No.  band energies     occupation 
      1      -5.0766      2.00000
      2      -1.0850      2.00000
      3       1.2946      2.00000
      4       2.4620      2.00000
      5       6.6703      0.00000
      6       7.3004      0.00000
      7       8.2003      0.00000
      8       9.5467      0.00000
      9      11.7850      0.00000
     10      13.3385      0.00000
     11      14.6839      0.00000
     12      15.6825      0.00000
     13      16.8827      0.00000
     14      17.7325      0.00000
     15      18.9849      0.00000
     16      20.5194      0.00000

 k-point   103 :      -0.4667    0.2667    0.1333
  band No.  band energies     occupation 
      1      -4.6735      2.00000
      2      -1.7081      2.00000
      3       1.0963      2.00000
      4       2.2751      2.00000
      5       6.6954      0.00000
      6       7.3331      0.00000
      7       8.7759      0.00000
      8       9.6926      0.00000
      9      12.2199      0.00000
     10      12.6485      0.00000
     11      15.2255      0.00000
     12      15.7991      0.00000
     13      16.6989      0.00000
     14      18.2015      0.00000
     15      19.8407      0.00000
     16      20.2892      0.00000

 k-point   104 :      -0.4000    0.2667    0.1333
  band No.  band energies     occupation 
      1      -4.3665      2.00000
      2      -2.1367      2.00000
      3       1.0087      2.00000
      4       2.1699      2.00000
      5       6.6936      0.00000
      6       7.2644      0.00000
      7       9.4284      0.00000
      8      10.0233      0.00000
      9      11.0790      0.00000
     10      13.6214      0.00000
     11      14.7652      0.00000
     12      15.4900      0.00000
     13      17.3221      0.00000
     14      18.7227      0.00000
     15      19.6431      0.00000
     16      20.7979      0.00000

 k-point   105 :       0.4667    0.3333    0.1333
  band No.  band energies     occupation 
      1      -4.9204      2.00000
      2      -1.2198      2.00000
      3       1.3359      2.00000
      4       2.0824      2.00000
      5       6.2091      0.00000
      6       7.0416      0.00000
      7       8.4735      0.00000
      8      10.3246      0.00000
      9      12.3331      0.00000
     10      13.6193      0.00000
     11      14.7502      0.00000
     12      16.3370      0.00000
     13      16.7330      0.00000
     14      17.4777      0.00000
     15      18.7284      0.00000
     16      19.9797      0.00000

 k-point   106 :      -0.4667    0.3333    0.1333
  band No.  band energies     occupation 
      1      -4.5154      2.00000
      2      -1.7658      2.00000
      3       1.0247      2.00000
      4       1.8858      2.00000
      5       6.4947      0.00000
      6       7.5231      0.00000
      7       8.2445      0.00000
      8      10.6392      0.00000
      9      12.4280      0.00000
     10      12.9837      0.00000
     11      15.6968      0.00000
     12      16.0362      0.00000
     13      17.1391      0.00000
     14      17.5394      0.00000
     15      19.3078      0.00000
     16      20.3386      0.00000

 k-point   107 :      -0.4000    0.3333    0.1333
  band No.  band energies     occupation 
      1      -4.1499      2.00000
      2      -2.2202      2.00000
      3       0.8064      2.00000
      4       1.7937      2.00000
      5       6.6109      0.00000
      6       7.9774      0.00000
      7       8.5073      0.00000
      8      10.5661      0.00000
      9      11.3147      0.00000
     10      13.8963      0.00000
     11      14.8610      0.00000
     12      16.3824      0.00000
     13      17.5687      0.00000
     14      18.5282      0.00000
     15      19.7717      0.00000
     16      20.7536      0.00000

 k-point   108 :      -0.3333    0.3333    0.1333
  band No.  band energies     occupation 
      1      -4.0370      2.00000
      2      -2.3520      2.00000
      3       0.6910      2.00000
      4       1.8285      2.00000
      5       6.7475      0.00000
      6       7.8252      0.00000
      7       9.5875      0.00000
      8       9.7889      0.00000
      9      10.8890      0.00000
     10      13.5790      0.00000
     11      15.1756      0.00000
     12      16.3918      0.00000
     13      18.2451      0.00000
     14      18.9903      0.00000
     15      19.5277      0.00000
     16      20.0553      0.00000

 k-point   109 :      -0.2667    0.3333    0.1333
  band No.  band energies     occupation 
      1      -4.2901      2.00000
      2      -2.0502      2.00000
      3       0.7072      2.00000
      4       1.9763      2.00000
      5       6.9310      0.00000
      6       7.6835      0.00000
      7       8.7710      0.00000
      8      10.4990      0.00000
      9      11.0533      0.00000
     10      12.5990      0.00000
     11      16.1656      0.00000
     12      16.3952      0.00000
     13      17.8740      0.00000
     14      17.9529      0.00000
     15      19.2429      0.00000
     16      20.4278      0.00000

 k-point   110 :      -0.2000    0.3333    0.1333
  band No.  band energies     occupation 
      1      -4.6864      2.00000
      2      -1.5654      2.00000
      3       0.8968      2.00000
      4       2.2056      2.00000
      5       7.1225      0.00000
      6       7.3437      0.00000
      7       8.1838      0.00000
      8      10.2217      0.00000
      9      11.9608      0.00000
     10      12.2229      0.00000
     11      15.8576      0.00000
     12      16.5537      0.00000
     13      16.8012      0.00000
     14      17.7249      0.00000
     15      19.1874      0.00000
     16      20.4166      0.00000

 k-point   111 :      -0.4667    0.4000    0.1333
  band No.  band energies     occupation 
      1      -4.2866      2.00000
      2      -2.0155      2.00000
      3       1.1656      2.00000
      4       1.6072      2.00000
      5       6.0969      0.00000
      6       6.6188      0.00000
      7       9.3000      0.00000
      8      11.3643      0.00000
      9      12.7699      0.00000
     10      13.4207      0.00000
     11      15.4507      0.00000
     12      16.3803      0.00000
     13      16.7953      0.00000
     14      17.9266      0.00000
     15      19.1353      0.00000
     16      19.7092      0.00000

 k-point   112 :      -0.4000    0.4000    0.1333
  band No.  band energies     occupation 
      1      -3.8857      2.00000
      2      -2.4545      2.00000
      3       0.8816      2.00000
      4       1.4790      2.00000
      5       6.3661      0.00000
      6       7.2827      0.00000
      7       9.0723      0.00000
      8      11.0098      0.00000
      9      12.1225      0.00000
     10      13.9967      0.00000
     11      14.9577      0.00000
     12      16.7762      0.00000
     13      17.6328      0.00000
     14      18.1558      0.00000
     15      19.6411      0.00000
     16      20.2268      0.00000

 k-point   113 :      -0.3333    0.4000    0.1333
  band No.  band energies     occupation 
      1      -3.6772      2.00000
      2      -2.6656      2.00000
      3       0.6399      2.00000
      4       1.5336      2.00000
      5       6.5131      0.00000
      6       8.3459      0.00000
      7       8.8673      0.00000
      8       9.8980      0.00000
      9      11.9436      0.00000
     10      13.5727      0.00000
     11      15.3394      0.00000
     12      17.0181      0.00000
     13      17.9974      0.00000
     14      18.9719      0.00000
     15      19.7139      0.00000
     16      20.4272      0.00000

 k-point   114 :      -0.2667    0.4000    0.1333
  band No.  band energies     occupation 
      1      -3.9011      2.00000
      2      -2.4306      2.00000
      3       0.5598      2.00000
      4       1.7125      2.00000
      5       6.7122      0.00000
      6       8.5498      0.00000
      7       8.9532      0.00000
      8       9.5554      0.00000
      9      11.5328      0.00000
     10      12.8433      0.00000
     11      16.0825      0.00000
     12      17.3110      0.00000
     13      17.5853      0.00000
     14      18.7705      0.00000
     15      19.3230      0.00000
     16      20.5300      0.00000

 k-point   115 :      -0.4000    0.4667    0.1333
  band No.  band energies     occupation 
      1      -3.5749      2.00000
      2      -2.8085      2.00000
      3       1.1474      2.00000
      4       1.2928      2.00000
      5       6.1216      0.00000
      6       6.2959      0.00000
      7      10.2597      0.00000
      8      11.2322      0.00000
      9      12.9857      0.00000
     10      13.8992      0.00000
     11      15.1077      0.00000
     12      16.0150      0.00000
     13      17.4932      0.00000
     14      18.6919      0.00000
     15      19.2662      0.00000
     16      20.2213      0.00000

 k-point   116 :      -0.3333    0.4667    0.1333
  band No.  band energies     occupation 
      1      -3.3442      2.00000
      2      -3.0137      2.00000
      3       0.8434      2.00000
      4       1.3274      2.00000
      5       6.3226      0.00000
      6       7.1853      0.00000
      7       9.9915      0.00000
      8      10.1113      0.00000
      9      12.8897      0.00000
     10      13.6166      0.00000
     11      15.3394      0.00000
     12      16.1725      0.00000
     13      18.5571      0.00000
     14      19.0536      0.00000
     15      19.4861      0.00000
     16      19.7298      0.00000

 k-point   117 :      -0.4000    0.4000    0.2000
  band No.  band energies     occupation 
      1      -4.1109      2.00000
      2      -2.1971      2.00000
      3       0.7882      2.00000
      4       1.5972      2.00000
      5       7.2423      0.00000
      6       7.6344      0.00000
      7       7.9970      0.00000
      8      10.8456      0.00000
      9      11.7240      0.00000
     10      13.1640      0.00000
     11      15.8276      0.00000
     12      17.0167      0.00000
     13      17.2404      0.00000
     14      18.1710      0.00000
     15      18.9173      0.00000
     16      21.0031      0.00000

 k-point   118 :      -0.3333    0.4000    0.2000
  band No.  band energies     occupation 
      1      -3.7680      2.00000
      2      -2.5575      2.00000
      3       0.6814      2.00000
      4       1.4228      2.00000
      5       7.5102      0.00000
      6       7.7379      0.00000
      7       8.5365      0.00000
      8       9.6919      0.00000
      9      11.9565      0.00000
     10      13.7982      0.00000
     11      15.1526      0.00000
     12      16.9293      0.00000
     13      17.8503      0.00000
     14      19.1255      0.00000
     15      19.6227      0.00000
     16      20.7253      0.00000

 k-point   119 :      -0.3333    0.4667    0.2000
  band No.  band energies     occupation 
      1      -3.4855      2.00000
      2      -2.8396      2.00000
      3       0.8622      2.00000
      4       1.1336      2.00000
      5       7.2591      0.00000
      6       7.4066      0.00000
      7       8.8332      0.00000
      8       9.8430      0.00000
      9      12.8652      0.00000
     10      13.8127      0.00000
     11      15.2235      0.00000
     12      16.1387      0.00000
     13      18.5154      0.00000
     14      19.4114      0.00000
     15      19.5277      0.00000
     16      20.4216      0.00000

 k-point   120 :      -0.2667    0.4667    0.2000
  band No.  band energies     occupation 
      1      -3.4024      2.00000
      2      -2.9110      2.00000
      3       0.7477      2.00000
      4       1.1475      2.00000
      5       7.4916      0.00000
      6       8.4535      0.00000
      7       8.5752      0.00000
      8       8.7082      0.00000
      9      12.8553      0.00000
     10      13.7158      0.00000
     11      15.3028      0.00000
     12      16.2086      0.00000
     13      18.6393      0.00000
     14      19.4381      0.00000
     15      20.2822      0.00000
     16      20.4180      0.00000


--------------------------------------------------------------------------------------------------------


 soft charge-density along one line, spin component           1
         0         1         2         3         4         5         6         7         8         9
 total charge-density along one line
 
 pseudopotential strength for first ion, spin component:           1
 18.628   0.001  -0.000  -0.000  -0.000   0.000   0.000   0.000
  0.001   0.006   0.000   0.000   0.000  -0.000  -0.000  -0.000
 -0.000   0.000   4.201  -0.000  -0.000  -0.003   0.000   0.000
 -0.000   0.000  -0.000   4.201  -0.000   0.000  -0.003   0.000
 -0.000   0.000  -0.000  -0.000   4.201   0.000   0.000  -0.003
  0.000  -0.000  -0.003   0.000   0.000   0.005  -0.000  -0.000
  0.000  -0.000   0.000  -0.003   0.000  -0.000   0.005  -0.000
  0.000  -0.000   0.000   0.000  -0.003  -0.000  -0.000   0.005
 total augmentation occupancy for first ion, spin component:           1
  1.544  -0.608  -0.000   0.000  -0.000  -0.000   0.000   0.000
 -0.608   0.550  -0.000   0.000  -0.000   0.000  -0.000   0.000
  0.000  -0.000   0.904   0.000  -0.000  -0.502  -0.000   0.000
  0.000  -0.000   0.000   0.904  -0.000  -0.000  -0.502   0.000
 -0.000   0.000   0.000  -0.000   0.904  -0.000   0.000  -0.502
  0.000   0.000  -0.502  -0.000  -0.000   0.321   0.000  -0.000
  0.000   0.000  -0.000  -0.502   0.000   0.000   0.321  -0.000
  0.000   0.000   0.000   0.000  -0.502   0.000   0.000   0.321


------------------------ aborting loop because EDIFF is reached ----------------------------------------


    CHARGE:  cpu time    0.0070: real time    0.0081
    FORLOC:  cpu time    0.0000: real time    0.0001
    FORNL :  cpu time    0.0130: real time    0.0129
    STRESS:  cpu time    0.1540: real time    0.1528
    FORCOR:  cpu time    0.0020: real time    0.0020
    FORHAR:  cpu time    0.0000: real time    0.0006
    MIXING:  cpu time    0.0000: real time    0.0003
    OFIELD:  cpu time    0.0000: real time    0.0000

  FORCE on cell =-STRESS in cart. coord.  units (eV):
  Direction    XX          YY          ZZ          XY          YZ          ZX
  --------------------------------------------------------------------------------------
  Alpha Z     2.76051     2.76051     2.76051
  Ewald     -71.32761   -71.32761   -71.32761    -0.00000    -0.00000    -0.00000
  Hartree     5.78600     5.78600     5.78600    -0.00000    -0.00000    -0.00000
  E(xc)     -24.34248   -24.34248   -24.34248    -0.00001    -0.00001    -0.00001
  Local     -32.32683   -32.32683   -32.32683     0.00006     0.00006     0.00006
  n-local    76.20477    77.70767    72.03733     1.89875    -1.07124     0.36876
  augment   -11.69989   -11.69989   -11.69989    -0.00006    -0.00006    -0.00006
  Kinetic    54.70384    53.42857    49.60109     3.59261    -0.96725     1.02838
  Fock        0.00000     0.00000     0.00000     0.00000     0.00000     0.00000
  -------------------------------------------------------------------------------------
  Total      -3.25588    -3.25588    -3.25588     0.00000    -0.00000    -0.00000
  in kB    -106.94352  -106.94352  -106.94352     0.00000    -0.00000    -0.00000
  external pressure =     -106.94 kB  Pullay stress =        0.00 kB


 VOLUME and BASIS-vectors are now :
 -----------------------------------------------------------------------------
  energy-cutoff  :      240.00
  volume of cell :       48.78
      direct lattice vectors                 reciprocal lattice vectors
     0.000000000  2.900000000  2.900000000    -0.172413793  0.172413793  0.172413793
     2.900000000  0.000000000  2.900000000     0.172413793 -0.172413793  0.172413793
     2.900000000  2.900000000  0.000000000     0.172413793  0.172413793 -0.172413793

  length of vectors
     4.101219331  4.101219331  4.101219331     0.298629450  0.298629450  0.298629450


 FORCES acting on ions
    electron-ion (+dipol)            ewald-force                    non-local-force                 convergence-correction
 -----------------------------------------------------------------------------------------------
   0.556E-06 0.556E-06 0.308E-06   0.103E-13 0.934E-14 0.112E-13   -.156E-15 -.139E-15 -.177E-15   0.253E-08 0.253E-08 0.253E-08
   -.556E-06 -.556E-06 -.308E-06   -.104E-13 -.931E-14 -.113E-13   0.184E-15 0.132E-15 0.243E-15   -.253E-08 -.253E-08 -.253E-08
 -----------------------------------------------------------------------------------------------
   -.119E-12 -.269E-13 0.459E-13   -.132E-15 0.271E-16 -.909E-16   0.278E-16 -.694E-17 0.659E-16   0.532E-15 -.256E-16 0.151E-15
 
 
 POSITION                                       TOTAL-FORCE (eV/Angst)
 -----------------------------------------------------------------------------------
      5.07500      5.07500      5.07500        -0.000000     -0.000000     -0.000000
      0.72500      0.72500      0.72500         0.000000      0.000000      0.000000
 -----------------------------------------------------------------------------------
    total drift:                               -0.000000     -0.000000      0.000000


--------------------------------------------------------------------------------------------------------



  FREE ENERGIE OF THE ION-ELECTRON SYSTEM (eV)
  ---------------------------------------------------
  free  energy   TOTEN  =       -10.52888874 eV

  energy  without entropy=      -10.52888874  energy(sigma->0) =      -10.52888874
 


--------------------------------------------------------------------------------------------------------


    POTLOK:  cpu time    0.0030: real time    0.0033


--------------------------------------------------------------------------------------------------------


 writing wavefunctions
     LOOP+:  cpu time    7.0479: real time    7.1527
    4ORBIT:  cpu time    0.0000: real time    0.0000

 total amount of memory used by VASP on root node    34560. kBytes
========================================================================

   base      :      30000. kBytes
   nonl-proj :       3331. kBytes
   fftplans  :         93. kBytes
   grid      :        270. kBytes
   one-center:          6. kBytes
   wavefun   :        860. kBytes
 
  
  
 General timing and accounting informations for this job:
 ========================================================
  
                  Total CPU time used (sec):        7.743
                            User time (sec):        7.590
                          System time (sec):        0.153
                         Elapsed time (sec):        8.272
  
                   Maximum memory used (kb):       76036.
                   Average memory used (kb):           0.
  
                          Minor page faults:        15198
                          Major page faults:            0
                 Voluntary context switches:         2844
