 vasp.5.4.1 24Jun15 (build May 02 2016 14:41:14) complex                        
  
 executed on           IFC91_ompi date 2022.05.07  11:08:09
 running on   16 total cores
 distrk:  each k-point on   16 cores,    1 groups
 distr:  one band on NCORES_PER_BAND=   1 cores,   16 groups


--------------------------------------------------------------------------------------------------------


 INCAR:
 POTCAR:   PAW_PBE Si 05Jan2001                   

 ----------------------------------------------------------------------------- 
|                                                                             |
|           W    W    AA    RRRRR   N    N  II  N    N   GGGG   !!!           |
|           W    W   A  A   R    R  NN   N  II  NN   N  G    G  !!!           |
|           W    W  A    A  R    R  N N  N  II  N N  N  G       !!!           |
|           W WW W  AAAAAA  RRRRR   N  N N  II  N  N N  G  GGG   !            |
|           WW  WW  A    A  R   R   N   NN  II  N   NN  G    G                |
|           W    W  A    A  R    R  N    N  II  N    N   GGGG   !!!           |
|                                                                             |
|      For optimal performance we recommend to set                            |
|        NCORE= 4 - approx SQRT( number of cores)                             |
|      NCORE specifies how many cores store one orbital (NPAR=cpu/NCORE).     |
|      This setting can  greatly improve the performance of VASP for DFT.     |
|      The default, NPAR=number of cores might be grossly inefficient         |
|      on modern multi-core architectures or massively parallel machines.     |
|      Do your own testing !!!!                                               |
|      Unfortunately you need to use the default for GW and RPA calculations. |
|      (for HF NCORE is supported but not extensively tested yet)             |
|                                                                             |
 ----------------------------------------------------------------------------- 

 POTCAR:   PAW_PBE Si 05Jan2001                   
   VRHFIN =Si: s2p2                                                             
   LEXCH  = PE                                                                  
   EATOM  =   103.0669 eV,    7.5752 Ry                                         
                                                                                
   TITEL  = PAW_PBE Si 05Jan2001                                                
   LULTRA =        F    use ultrasoft PP ?                                      
   IUNSCR =        1    unscreen: 0-lin 1-nonlin 2-no                           
   RPACOR =    1.500    partial core radius                                     
   POMASS =   28.085; ZVAL   =    4.000    mass and valenz                      
   RCORE  =    1.900    outmost cutoff radius                                   
   RWIGS  =    2.480; RWIGS  =    1.312    wigner-seitz radius (au A)           
   ENMAX  =  245.345; ENMIN  =  184.009 eV                                      
   ICORE  =        2    local potential                                         
   LCOR   =        T    correct aug charges                                     
   LPAW   =        T    paw PP                                                  
   EAUG   =  322.069                                                            
   DEXC   =    -.007                                                            
   RMAX   =    2.944    core radius for proj-oper                               
   RAUG   =    1.300    factor for augmentation sphere                          
   RDEP   =    1.993    radius for radial grids                                 
   QCUT   =   -4.246; QGAM   =    8.493    optimization parameters              
                                                                                
   Description                                                                  
     l     E      TYP  RCUT    TYP  RCUT                                        
     0   .000     23  1.900                                                     
     0   .000     23  1.900                                                     
     1   .000     23  1.900                                                     
     1   .000     23  1.900                                                     
     2   .000      7  1.900                                                     
  local pseudopotential read in
  partial core-charges read in
  atomic valenz-charges read in
  non local Contribution for L=           0  read in
    real space projection operators read in
  non local Contribution for L=           0  read in
    real space projection operators read in
  non local Contribution for L=           1  read in
    real space projection operators read in
  non local Contribution for L=           1  read in
    real space projection operators read in
    PAW grid and wavefunctions read in
 
   number of l-projection  operators is LMAX  =           4
   number of lm-projection operators is LMMAX =           8
 
 PAW_PBE Si 05Jan2001                   :
 energy of atom  1       EATOM= -103.0669
 kinetic energy error for atom=    0.0531 (will be added to EATOM!!)
 
 
 POSCAR: Real silicon structure                  
  positions in direct lattice
  No initial velocities read in
 exchange correlation table for  LEXCH =        8
   RHO(1)=    0.500       N(1)  =     2000
   RHO(2)=  100.500       N(2)  =     4000
 


--------------------------------------------------------------------------------------------------------


 ion  position               nearest neighbor table
   1  0.875  0.875  0.875-   2 2.51   2 2.51   2 2.51   2 2.51
   2  0.125  0.125  0.125-   1 2.51   1 2.51   1 2.51   1 2.51
 
  LATTYP: Found a face centered cubic cell.
 ALAT       =     5.8000000000
  
  Lattice vectors:
  
 A1 = (   0.0000000000,   2.9000000000,   2.9000000000)
 A2 = (   2.9000000000,   0.0000000000,   2.9000000000)
 A3 = (   2.9000000000,   2.9000000000,   0.0000000000)


Analysis of symmetry for initial positions (statically):
=====================================================================
 Subroutine PRICEL returns:
 Original cell was already a primitive cell.
 

 Routine SETGRP: Setting up the symmetry group for a 
 face centered cubic supercell.


 Subroutine GETGRP returns: Found 48 space group operations
 (whereof 12 operations were pure point group operations)
 out of a pool of 48 trial point group operations.


The static configuration has the point symmetry D_3d.
 The point group associated with its full space group is O_h .


Analysis of symmetry for dynamics (positions and initial velocities):
=====================================================================
 Subroutine PRICEL returns:
 Original cell was already a primitive cell.
 

 Routine SETGRP: Setting up the symmetry group for a 
 face centered cubic supercell.


 Subroutine GETGRP returns: Found 48 space group operations
 (whereof 12 operations were pure point group operations)
 out of a pool of 48 trial point group operations.


The dynamic configuration has the point symmetry D_3d.
 The point group associated with its full space group is O_h .
 
 
 KPOINTS: k-points                                

Automatic generation of k-mesh.
Space group operators:
 irot       det(A)        alpha          n_x          n_y          n_z        tau_x        tau_y        tau_z
    1     1.000000     0.000000     1.000000     0.000000     0.000000     0.000000     0.000000     0.000000
    2    -1.000000     0.000000     1.000000     0.000000     0.000000     0.000000     0.000000     0.000000
    3     1.000000   120.000000    -0.577350    -0.577350    -0.577350     0.000000     0.000000     0.000000
    4    -1.000000   120.000000    -0.577350    -0.577350    -0.577350     0.000000     0.000000     0.000000
    5     1.000000   120.000000     0.577350     0.577350     0.577350     0.000000     0.000000     0.000000
    6    -1.000000   120.000000     0.577350     0.577350     0.577350     0.000000     0.000000     0.000000
    7     1.000000   180.000000     0.000000    -0.707107     0.707107     0.000000     0.000000     0.000000
    8    -1.000000   180.000000     0.000000    -0.707107     0.707107     0.000000     0.000000     0.000000
    9     1.000000   180.000000     0.707107    -0.707107     0.000000     0.000000     0.000000     0.000000
   10    -1.000000   180.000000     0.707107    -0.707107     0.000000     0.000000     0.000000     0.000000
   11     1.000000   180.000000     0.707107     0.000000    -0.707107     0.000000     0.000000     0.000000
   12    -1.000000   180.000000     0.707107     0.000000    -0.707107     0.000000     0.000000     0.000000
   13     1.000000    90.000000     0.000000     0.000000    -1.000000     0.500000     0.000000     0.000000
   14    -1.000000    90.000000     0.000000     0.000000    -1.000000     0.500000     0.000000     0.000000
   15     1.000000   180.000000     0.000000     0.707107     0.707107     0.500000     0.000000     0.000000
   16    -1.000000   180.000000     0.000000     0.707107     0.707107     0.500000     0.000000     0.000000
   17     1.000000    90.000000     0.000000     1.000000     0.000000     0.500000     0.000000     0.000000
   18    -1.000000    90.000000     0.000000     1.000000     0.000000     0.500000     0.000000     0.000000
   19     1.000000   180.000000     0.000000     0.000000     1.000000     0.000000     0.000000     0.500000
   20    -1.000000   180.000000     0.000000     0.000000     1.000000     0.000000     0.000000     0.500000
   21     1.000000   120.000000    -0.577350     0.577350     0.577350     0.000000     0.000000     0.500000
   22    -1.000000   120.000000    -0.577350     0.577350     0.577350     0.000000     0.000000     0.500000
   23     1.000000   120.000000    -0.577350     0.577350    -0.577350     0.000000     0.000000     0.500000
   24    -1.000000   120.000000    -0.577350     0.577350    -0.577350     0.000000     0.000000     0.500000
   25     1.000000    90.000000     0.000000     0.000000     1.000000     0.000000     0.500000     0.000000
   26    -1.000000    90.000000     0.000000     0.000000     1.000000     0.000000     0.500000     0.000000
   27     1.000000    90.000000    -1.000000     0.000000     0.000000     0.000000     0.500000     0.000000
   28    -1.000000    90.000000    -1.000000     0.000000     0.000000     0.000000     0.500000     0.000000
   29     1.000000   180.000000     0.707107     0.000000     0.707107     0.000000     0.500000     0.000000
   30    -1.000000   180.000000     0.707107     0.000000     0.707107     0.000000     0.500000     0.000000
   31     1.000000   120.000000     0.577350    -0.577350     0.577350     0.500000     0.000000     0.000000
   32    -1.000000   120.000000     0.577350    -0.577350     0.577350     0.500000     0.000000     0.000000
   33     1.000000   120.000000    -0.577350    -0.577350     0.577350     0.500000     0.000000     0.000000
   34    -1.000000   120.000000    -0.577350    -0.577350     0.577350     0.500000     0.000000     0.000000
   35     1.000000   180.000000     1.000000     0.000000     0.000000     0.500000     0.000000     0.000000
   36    -1.000000   180.000000     1.000000     0.000000     0.000000     0.500000     0.000000     0.000000
   37     1.000000    90.000000     0.000000    -1.000000     0.000000     0.000000     0.000000     0.500000
   38    -1.000000    90.000000     0.000000    -1.000000     0.000000     0.000000     0.000000     0.500000
   39     1.000000   180.000000     0.707107     0.707107     0.000000     0.000000     0.000000     0.500000
   40    -1.000000   180.000000     0.707107     0.707107     0.000000     0.000000     0.000000     0.500000
   41     1.000000    90.000000     1.000000     0.000000     0.000000     0.000000     0.000000     0.500000
   42    -1.000000    90.000000     1.000000     0.000000     0.000000     0.000000     0.000000     0.500000
   43     1.000000   120.000000     0.577350    -0.577350    -0.577350     0.000000     0.500000     0.000000
   44    -1.000000   120.000000     0.577350    -0.577350    -0.577350     0.000000     0.500000     0.000000
   45     1.000000   180.000000     0.000000     1.000000     0.000000     0.000000     0.500000     0.000000
   46    -1.000000   180.000000     0.000000     1.000000     0.000000     0.000000     0.500000     0.000000
   47     1.000000   120.000000     0.577350     0.577350    -0.577350     0.000000     0.500000     0.000000
   48    -1.000000   120.000000     0.577350     0.577350    -0.577350     0.000000     0.500000     0.000000
 
 Subroutine IBZKPT returns following result:
 ===========================================
 
 Found    120 irreducible k-points:
 
 Following reciprocal coordinates:
            Coordinates               Weight
  0.000000  0.000000  0.000000      1.000000
  0.066667  0.000000  0.000000      8.000000
  0.133333  0.000000  0.000000      8.000000
  0.200000  0.000000  0.000000      8.000000
  0.266667  0.000000  0.000000      8.000000
  0.333333  0.000000  0.000000      8.000000
  0.400000  0.000000  0.000000      8.000000
  0.466667  0.000000  0.000000      8.000000
  0.066667  0.066667  0.000000      6.000000
  0.133333  0.066667  0.000000     24.000000
  0.200000  0.066667  0.000000     24.000000
  0.266667  0.066667  0.000000     24.000000
  0.333333  0.066667  0.000000     24.000000
  0.400000  0.066667  0.000000     24.000000
  0.466667  0.066667  0.000000     24.000000
 -0.466667  0.066667  0.000000     24.000000
 -0.400000  0.066667  0.000000     24.000000
 -0.333333  0.066667  0.000000     24.000000
 -0.266667  0.066667  0.000000     24.000000
 -0.200000  0.066667  0.000000     24.000000
 -0.133333  0.066667  0.000000     24.000000
 -0.066667  0.066667  0.000000     12.000000
  0.133333  0.133333  0.000000      6.000000
  0.200000  0.133333  0.000000     24.000000
  0.266667  0.133333  0.000000     24.000000
  0.333333  0.133333  0.000000     24.000000
  0.400000  0.133333  0.000000     24.000000
  0.466667  0.133333  0.000000     24.000000
 -0.466667  0.133333  0.000000     24.000000
 -0.400000  0.133333  0.000000     24.000000
 -0.333333  0.133333  0.000000     24.000000
 -0.266667  0.133333  0.000000     24.000000
 -0.200000  0.133333  0.000000     24.000000
 -0.133333  0.133333  0.000000     12.000000
  0.200000  0.200000  0.000000      6.000000
  0.266667  0.200000  0.000000     24.000000
  0.333333  0.200000  0.000000     24.000000
  0.400000  0.200000  0.000000     24.000000
  0.466667  0.200000  0.000000     24.000000
 -0.466667  0.200000  0.000000     24.000000
 -0.400000  0.200000  0.000000     24.000000
 -0.333333  0.200000  0.000000     24.000000
 -0.266667  0.200000  0.000000     24.000000
 -0.200000  0.200000  0.000000     12.000000
  0.266667  0.266667  0.000000      6.000000
  0.333333  0.266667  0.000000     24.000000
  0.400000  0.266667  0.000000     24.000000
  0.466667  0.266667  0.000000     24.000000
 -0.466667  0.266667  0.000000     24.000000
 -0.400000  0.266667  0.000000     24.000000
 -0.333333  0.266667  0.000000     24.000000
 -0.266667  0.266667  0.000000     12.000000
  0.333333  0.333333  0.000000      6.000000
  0.400000  0.333333  0.000000     24.000000
  0.466667  0.333333  0.000000     24.000000
 -0.466667  0.333333  0.000000     24.000000
 -0.400000  0.333333  0.000000     24.000000
 -0.333333  0.333333  0.000000     12.000000
  0.400000  0.400000  0.000000      6.000000
  0.466667  0.400000  0.000000     24.000000
 -0.466667  0.400000  0.000000     24.000000
 -0.400000  0.400000  0.000000     12.000000
  0.466667  0.466667  0.000000      6.000000
 -0.466667  0.466667  0.000000     12.000000
  0.200000  0.133333  0.066667     24.000000
  0.266667  0.133333  0.066667     48.000000
  0.333333  0.133333  0.066667     48.000000
  0.400000  0.133333  0.066667     48.000000
  0.466667  0.133333  0.066667     48.000000
 -0.466667  0.133333  0.066667     48.000000
  0.266667  0.200000  0.066667     24.000000
  0.333333  0.200000  0.066667     48.000000
  0.400000  0.200000  0.066667     48.000000
  0.466667  0.200000  0.066667     48.000000
 -0.466667  0.200000  0.066667     48.000000
 -0.400000  0.200000  0.066667     48.000000
 -0.333333  0.200000  0.066667     48.000000
 -0.266667  0.200000  0.066667     48.000000
 -0.200000  0.200000  0.066667     48.000000
 -0.133333  0.200000  0.066667     24.000000
  0.333333  0.266667  0.066667     24.000000
  0.400000  0.266667  0.066667     48.000000
  0.466667  0.266667  0.066667     48.000000
 -0.466667  0.266667  0.066667     48.000000
 -0.400000  0.266667  0.066667     48.000000
 -0.333333  0.266667  0.066667     48.000000
 -0.266667  0.266667  0.066667     48.000000
 -0.200000  0.266667  0.066667     24.000000
  0.400000  0.333333  0.066667     24.000000
  0.466667  0.333333  0.066667     48.000000
 -0.466667  0.333333  0.066667     48.000000
 -0.400000  0.333333  0.066667     48.000000
 -0.333333  0.333333  0.066667     48.000000
 -0.266667  0.333333  0.066667     24.000000
  0.466667  0.400000  0.066667     24.000000
 -0.466667  0.400000  0.066667     48.000000
 -0.400000  0.400000  0.066667     48.000000
 -0.333333  0.400000  0.066667     24.000000
 -0.466667  0.466667  0.066667     24.000000
 -0.400000  0.466667  0.066667     24.000000
  0.400000  0.266667  0.133333     24.000000
  0.466667  0.266667  0.133333     48.000000
 -0.466667  0.266667  0.133333     48.000000
 -0.400000  0.266667  0.133333     48.000000
  0.466667  0.333333  0.133333     24.000000
 -0.466667  0.333333  0.133333     48.000000
 -0.400000  0.333333  0.133333     48.000000
 -0.333333  0.333333  0.133333     48.000000
 -0.266667  0.333333  0.133333     48.000000
 -0.200000  0.333333  0.133333     24.000000
 -0.466667  0.400000  0.133333     24.000000
 -0.400000  0.400000  0.133333     48.000000
 -0.333333  0.400000  0.133333     48.000000
 -0.266667  0.400000  0.133333     24.000000
 -0.400000  0.466667  0.133333     24.000000
 -0.333333  0.466667  0.133333     24.000000
 -0.400000  0.400000  0.200000     24.000000
 -0.333333  0.400000  0.200000     48.000000
 -0.333333  0.466667  0.200000     24.000000
 -0.266667  0.466667  0.200000     24.000000
 
 Following cartesian coordinates:
            Coordinates               Weight
  0.000000  0.000000  0.000000      1.000000
 -0.066667  0.066667  0.066667      8.000000
 -0.133333  0.133333  0.133333      8.000000
 -0.200000  0.200000  0.200000      8.000000
 -0.266667  0.266667  0.266667      8.000000
 -0.333333  0.333333  0.333333      8.000000
 -0.400000  0.400000  0.400000      8.000000
 -0.466667  0.466667  0.466667      8.000000
  0.000000  0.000000  0.133333      6.000000
 -0.066667  0.066667  0.200000     24.000000
 -0.133333  0.133333  0.266667     24.000000
 -0.200000  0.200000  0.333333     24.000000
 -0.266667  0.266667  0.400000     24.000000
 -0.333333  0.333333  0.466667     24.000000
 -0.400000  0.400000  0.533333     24.000000
  0.533333 -0.533333 -0.400000     24.000000
  0.466667 -0.466667 -0.333333     24.000000
  0.400000 -0.400000 -0.266667     24.000000
  0.333333 -0.333333 -0.200000     24.000000
  0.266667 -0.266667 -0.133333     24.000000
  0.200000 -0.200000 -0.066667     24.000000
  0.133333 -0.133333  0.000000     12.000000
  0.000000  0.000000  0.266667      6.000000
 -0.066667  0.066667  0.333333     24.000000
 -0.133333  0.133333  0.400000     24.000000
 -0.200000  0.200000  0.466667     24.000000
 -0.266667  0.266667  0.533333     24.000000
 -0.333333  0.333333  0.600000     24.000000
  0.600000 -0.600000 -0.333333     24.000000
  0.533333 -0.533333 -0.266667     24.000000
  0.466667 -0.466667 -0.200000     24.000000
  0.400000 -0.400000 -0.133333     24.000000
  0.333333 -0.333333 -0.066667     24.000000
  0.266667 -0.266667  0.000000     12.000000
  0.000000  0.000000  0.400000      6.000000
 -0.066667  0.066667  0.466667     24.000000
 -0.133333  0.133333  0.533333     24.000000
 -0.200000  0.200000  0.600000     24.000000
 -0.266667  0.266667  0.666667     24.000000
  0.666667 -0.666667 -0.266667     24.000000
  0.600000 -0.600000 -0.200000     24.000000
  0.533333 -0.533333 -0.133333     24.000000
  0.466667 -0.466667 -0.066667     24.000000
  0.400000 -0.400000  0.000000     12.000000
  0.000000  0.000000  0.533333      6.000000
 -0.066667  0.066667  0.600000     24.000000
 -0.133333  0.133333  0.666667     24.000000
 -0.200000  0.200000  0.733333     24.000000
  0.733333 -0.733333 -0.200000     24.000000
  0.666667 -0.666667 -0.133333     24.000000
  0.600000 -0.600000 -0.066667     24.000000
  0.533333 -0.533333  0.000000     12.000000
  0.000000  0.000000  0.666667      6.000000
 -0.066667  0.066667  0.733333     24.000000
 -0.133333  0.133333  0.800000     24.000000
  0.800000 -0.800000 -0.133333     24.000000
  0.733333 -0.733333 -0.066667     24.000000
  0.666667 -0.666667  0.000000     12.000000
  0.000000  0.000000  0.800000      6.000000
 -0.066667  0.066667  0.866667     24.000000
  0.866667 -0.866667 -0.066667     24.000000
  0.800000 -0.800000  0.000000     12.000000
  0.000000  0.000000  0.933333      6.000000
  0.933333 -0.933333  0.000000     12.000000
  0.000000  0.133333  0.266667     24.000000
 -0.066667  0.200000  0.333333     48.000000
 -0.133333  0.266667  0.400000     48.000000
 -0.200000  0.333333  0.466667     48.000000
 -0.266667  0.400000  0.533333     48.000000
  0.666667 -0.533333 -0.400000     48.000000
  0.000000  0.133333  0.400000     24.000000
 -0.066667  0.200000  0.466667     48.000000
 -0.133333  0.266667  0.533333     48.000000
 -0.200000  0.333333  0.600000     48.000000
  0.733333 -0.600000 -0.333333     48.000000
  0.666667 -0.533333 -0.266667     48.000000
  0.600000 -0.466667 -0.200000     48.000000
  0.533333 -0.400000 -0.133333     48.000000
  0.466667 -0.333333 -0.066667     48.000000
  0.400000 -0.266667  0.000000     24.000000
  0.000000  0.133333  0.533333     24.000000
 -0.066667  0.200000  0.600000     48.000000
 -0.133333  0.266667  0.666667     48.000000
  0.800000 -0.666667 -0.266667     48.000000
  0.733333 -0.600000 -0.200000     48.000000
  0.666667 -0.533333 -0.133333     48.000000
  0.600000 -0.466667 -0.066667     48.000000
  0.533333 -0.400000 -0.000000     24.000000
 -0.000000  0.133333  0.666667     24.000000
 -0.066667  0.200000  0.733333     48.000000
  0.866667 -0.733333 -0.200000     48.000000
  0.800000 -0.666667 -0.133333     48.000000
  0.733333 -0.600000 -0.066667     48.000000
  0.666667 -0.533333 -0.000000     24.000000
  0.000000  0.133333  0.800000     24.000000
  0.933333 -0.800000 -0.133333     48.000000
  0.866667 -0.733333 -0.066667     48.000000
  0.800000 -0.666667  0.000000     24.000000
  1.000000 -0.866667 -0.066667     24.000000
  0.933333 -0.800000 -0.000000     24.000000
 -0.000000  0.266667  0.533333     24.000000
 -0.066667  0.333333  0.600000     48.000000
  0.866667 -0.600000 -0.333333     48.000000
  0.800000 -0.533333 -0.266667     48.000000
 -0.000000  0.266667  0.666667     24.000000
  0.933333 -0.666667 -0.266667     48.000000
  0.866667 -0.600000 -0.200000     48.000000
  0.800000 -0.533333 -0.133333     48.000000
  0.733333 -0.466667 -0.066667     48.000000
  0.666667 -0.400000 -0.000000     24.000000
  1.000000 -0.733333 -0.200000     24.000000
  0.933333 -0.666667 -0.133333     48.000000
  0.866667 -0.600000 -0.066667     48.000000
  0.800000 -0.533333  0.000000     24.000000
  1.000000 -0.733333 -0.066667     24.000000
  0.933333 -0.666667  0.000000     24.000000
  1.000000 -0.600000 -0.200000     24.000000
  0.933333 -0.533333 -0.133333     48.000000
  1.000000 -0.600000 -0.066667     24.000000
  0.933333 -0.533333  0.000000     24.000000
 


--------------------------------------------------------------------------------------------------------




 Dimension of arrays:
   k-points           NKPTS =    120   k-points in BZ     NKDIM =    120   number of bands    NBANDS=     16
   number of dos      NEDOS =    301   number of ions     NIONS =      2
   non local maximal  LDIM  =      4   non local SUM 2l+1 LMDIM =      8
   total plane-waves  NPLWV =   1728
   max r-space proj   IRMAX =      1   max aug-charges    IRDMAX=   1384
   dimension x,y,z NGX =    12 NGY =   12 NGZ =   12
   dimension x,y,z NGXF=    24 NGYF=   24 NGZF=   24
   support grid    NGXF=    24 NGYF=   24 NGZF=   24
   ions per type =               2
 NGX,Y,Z   is equivalent  to a cutoff of   4.86,  4.86,  4.86 a.u.
 NGXF,Y,Z  is equivalent  to a cutoff of   9.73,  9.73,  9.73 a.u.


 I would recommend the setting:
   dimension x,y,z NGX =    11 NGY =   11 NGZ =   11
 SYSTEM =  Silicon                                 
 POSCAR =  Real silicon structure                  

 Startparameter for this run:
   NWRITE =      2    write-flag & timer
   PREC   = normal    normal or accurate (medium, high low for compatibility)
   ISTART =      0    job   : 0-new  1-cont  2-samecut
   ICHARG =      2    charge: 1-file 2-atom 10-const
   ISPIN  =      1    spin polarized calculation?
   LNONCOLLINEAR =      F non collinear calculations
   LSORBIT =      F    spin-orbit coupling
   INIWAV =      1    electr: 0-lowe 1-rand  2-diag
   LASPH  =      F    aspherical Exc in radial PAW
   METAGGA=      F    non-selfconsistent MetaGGA calc.

 Electronic Relaxation 1
   ENCUT  =  120.0 eV   8.82 Ry    2.97 a.u.   3.66  3.66  3.66*2*pi/ulx,y,z
   ENINI  =  120.0     initial cutoff
   ENAUG  =  322.1 eV  augmentation charge cutoff
   NELM   =    100;   NELMIN=  4; NELMDL= -5     # of ELM steps 
   EDIFF  = 0.1E-05   stopping-criterion for ELM
   LREAL  =      F    real-space projection
   NLSPLINE    = F    spline interpolate recip. space projectors
   LCOMPAT=      F    compatible to vasp.4.4
   GGA_COMPAT  = T    GGA compatible to vasp.4.4-vasp.4.6
   LMAXPAW     = -100 max onsite density
   LMAXMIX     =    2 max onsite mixed and CHGCAR
   VOSKOWN=      0    Vosko Wilk Nusair interpolation
   ROPT   =    0.00000
 Ionic relaxation
   EDIFFG = 0.1E-04   stopping-criterion for IOM
   NSW    =      0    number of steps for IOM
   NBLOCK =      1;   KBLOCK =      1    inner block; outer block 
   IBRION =     -1    ionic relax: 0-MD 1-quasi-New 2-CG
   NFREE  =      0    steps in history (QN), initial steepest desc. (CG)
   ISIF   =      2    stress and relaxation
   IWAVPR =     10    prediction:  0-non 1-charg 2-wave 3-comb
   ISYM   =      2    0-nonsym 1-usesym 2-fastsym
   LCORR  =      T    Harris-Foulkes like correction to forces

   POTIM  = 0.5000    time-step for ionic-motion
   TEIN   =    0.0    initial temperature
   TEBEG  =    0.0;   TEEND  =   0.0 temperature during run
   SMASS  =  -3.00    Nose mass-parameter (am)
   estimated Nose-frequenzy (Omega)   =  0.10E-29 period in steps =****** mass=  -0.384E-27a.u.
   SCALEE = 1.0000    scale energy and forces
   NPACO  =    256;   APACO  = 16.0  distance and # of slots for P.C.
   PSTRESS=    0.0 pullay stress

  Mass of Ions in am
   POMASS =  28.09
  Ionic Valenz
   ZVAL   =   4.00
  Atomic Wigner-Seitz radii
   RWIGS  =  -1.00
  virtual crystal weights 
   VCA    =   1.00
   NELECT =       8.0000    total number of electrons
   NUPDOWN=      -1.0000    fix difference up-down

 DOS related values:
   EMIN   =  10.00;   EMAX   =-10.00  energy-range for DOS
   EFERMI =   0.00
   ISMEAR =     0;   SIGMA  =   0.10  broadening in eV -4-tet -1-fermi 0-gaus

 Electronic relaxation 2 (details)
   IALGO  =     38    algorithm
   LDIAG  =      T    sub-space diagonalisation (order eigenvalues)
   LSUBROT=      F    optimize rotation matrix (better conditioning)
   TURBO    =      0    0=normal 1=particle mesh
   IRESTART =      0    0=no restart 2=restart with 2 vectors
   NREBOOT  =      0    no. of reboots
   NMIN     =      0    reboot dimension
   EREF     =   0.00    reference energy to select bands
   IMIX   =      4    mixing-type and parameters
     AMIX     =   0.40;   BMIX     =  1.00
     AMIX_MAG =   1.60;   BMIX_MAG =  1.00
     AMIN     =   0.10
     WC   =   100.;   INIMIX=   1;  MIXPRE=   1;  MAXMIX= -45

 Intra band minimization:
   WEIMIN = 0.0000     energy-eigenvalue tresh-hold
   EBREAK =  0.16E-07  absolut break condition
   DEPER  =   0.30     relativ break condition  

   TIME   =   0.40     timestep for ELM

  volume/ion in A,a.u.               =      24.39       164.59
  Fermi-wavevector in a.u.,A,eV,Ry     =   0.896114  1.693411 10.925766  0.803021
  Thomas-Fermi vector in A             =   2.018532
 
 Write flags
   LWAVE  =      T    write WAVECAR
   LCHARG =      T    write CHGCAR
   LVTOT  =      F    write LOCPOT, total local potential
   LVHAR  =      F    write LOCPOT, Hartree potential only
   LELF   =      F    write electronic localiz. function (ELF)
   LORBIT =      0    0 simple, 1 ext, 2 COOP (PROOUT)


 Dipole corrections
   LMONO  =      F    monopole corrections only (constant potential shift)
   LDIPOL =      F    correct potential (dipole corrections)
   IDIPOL =      0    1-x, 2-y, 3-z, 4-all directions 
   EPSILON=  1.0000000 bulk dielectric constant

 Exchange correlation treatment:
   GGA     =    --    GGA type
   LEXCH   =     8    internal setting for exchange type
   VOSKOWN=      0    Vosko Wilk Nusair interpolation
   LHFCALC =     F    Hartree Fock is set to
   LHFONE  =     F    Hartree Fock one center treatment
   AEXX    =    0.0000 exact exchange contribution

 Linear response parameters
   LEPSILON=     F    determine dielectric tensor
   LRPA    =     F    only Hartree local field effects (RPA)
   LNABLA  =     F    use nabla operator in PAW spheres
   LVEL    =     F    velocity operator in full k-point grid
   LINTERFAST=   F  fast interpolation
   KINTER  =     0    interpolate to denser k-point grid
   CSHIFT  =0.1000    complex shift for real part using Kramers Kronig
   OMEGAMAX=  -1.0    maximum frequency
   DEG_THRESHOLD= 0.2000000E-02 threshold for treating states as degnerate
   RTIME   =    0.100 relaxation time in fs

 Orbital magnetization related:
   ORBITALMAG=     F  switch on orbital magnetization
   LCHIMAG   =     F  perturbation theory with respect to B field
   DQ        =  0.001000  dq finite difference perturbation B field



--------------------------------------------------------------------------------------------------------


 Static calculation
 charge density and potential will be updated during run
 non-spin polarized calculation
 Variant of blocked Davidson
 Davidson routine will perform the subspace rotation
 perform sub-space diagonalisation
    after iterative eigenvector-optimisation
 modified Broyden-mixing scheme, WC =      100.0
 initial mixing is a Kerker type mixing with AMIX =  0.4000 and BMIX =      1.0000
 Hartree-type preconditioning will be used
 using additional bands           12
 reciprocal scheme for non local part
 use partial core corrections
 calculate Harris-corrections to forces 
   (improved forces if not selfconsistent)
 use gradient corrections 
 use of overlap-Matrix (Vanderbilt PP)
 Gauss-broadening in eV      SIGMA  =   0.10


--------------------------------------------------------------------------------------------------------


  energy-cutoff  :      120.00
  volume of cell :       48.78
      direct lattice vectors                 reciprocal lattice vectors
     0.000000000  2.900000000  2.900000000    -0.172413793  0.172413793  0.172413793
     2.900000000  0.000000000  2.900000000     0.172413793 -0.172413793  0.172413793
     2.900000000  2.900000000  0.000000000     0.172413793  0.172413793 -0.172413793

  length of vectors
     4.101219331  4.101219331  4.101219331     0.298629450  0.298629450  0.298629450


 
 k-points in units of 2pi/SCALE and weight: k-points                                
   0.00000000  0.00000000  0.00000000       0.000
  -0.06666667  0.06666667  0.06666667       0.002
  -0.13333333  0.13333333  0.13333333       0.002
  -0.20000000  0.20000000  0.20000000       0.002
  -0.26666667  0.26666667  0.26666667       0.002
  -0.33333333  0.33333333  0.33333333       0.002
  -0.40000000  0.40000000  0.40000000       0.002
  -0.46666667  0.46666667  0.46666667       0.002
   0.00000000  0.00000000  0.13333333       0.002
  -0.06666667  0.06666667  0.20000000       0.007
  -0.13333333  0.13333333  0.26666667       0.007
  -0.20000000  0.20000000  0.33333333       0.007
  -0.26666667  0.26666667  0.40000000       0.007
  -0.33333333  0.33333333  0.46666667       0.007
  -0.40000000  0.40000000  0.53333333       0.007
   0.53333333 -0.53333333 -0.40000000       0.007
   0.46666667 -0.46666667 -0.33333333       0.007
   0.40000000 -0.40000000 -0.26666667       0.007
   0.33333333 -0.33333333 -0.20000000       0.007
   0.26666667 -0.26666667 -0.13333333       0.007
   0.20000000 -0.20000000 -0.06666667       0.007
   0.13333333 -0.13333333  0.00000000       0.004
   0.00000000  0.00000000  0.26666667       0.002
  -0.06666667  0.06666667  0.33333333       0.007
  -0.13333333  0.13333333  0.40000000       0.007
  -0.20000000  0.20000000  0.46666667       0.007
  -0.26666667  0.26666667  0.53333333       0.007
  -0.33333333  0.33333333  0.60000000       0.007
   0.60000000 -0.60000000 -0.33333333       0.007
   0.53333333 -0.53333333 -0.26666667       0.007
   0.46666667 -0.46666667 -0.20000000       0.007
   0.40000000 -0.40000000 -0.13333333       0.007
   0.33333333 -0.33333333 -0.06666667       0.007
   0.26666667 -0.26666667  0.00000000       0.004
   0.00000000  0.00000000  0.40000000       0.002
  -0.06666667  0.06666667  0.46666667       0.007
  -0.13333333  0.13333333  0.53333333       0.007
  -0.20000000  0.20000000  0.60000000       0.007
  -0.26666667  0.26666667  0.66666667       0.007
   0.66666667 -0.66666667 -0.26666667       0.007
   0.60000000 -0.60000000 -0.20000000       0.007
   0.53333333 -0.53333333 -0.13333333       0.007
   0.46666667 -0.46666667 -0.06666667       0.007
   0.40000000 -0.40000000  0.00000000       0.004
   0.00000000  0.00000000  0.53333333       0.002
  -0.06666667  0.06666667  0.60000000       0.007
  -0.13333333  0.13333333  0.66666667       0.007
  -0.20000000  0.20000000  0.73333333       0.007
   0.73333333 -0.73333333 -0.20000000       0.007
   0.66666667 -0.66666667 -0.13333333       0.007
   0.60000000 -0.60000000 -0.06666667       0.007
   0.53333333 -0.53333333  0.00000000       0.004
   0.00000000  0.00000000  0.66666667       0.002
  -0.06666667  0.06666667  0.73333333       0.007
  -0.13333333  0.13333333  0.80000000       0.007
   0.80000000 -0.80000000 -0.13333333       0.007
   0.73333333 -0.73333333 -0.06666667       0.007
   0.66666667 -0.66666667  0.00000000       0.004
   0.00000000  0.00000000  0.80000000       0.002
  -0.06666667  0.06666667  0.86666667       0.007
   0.86666667 -0.86666667 -0.06666667       0.007
   0.80000000 -0.80000000  0.00000000       0.004
   0.00000000  0.00000000  0.93333333       0.002
   0.93333333 -0.93333333  0.00000000       0.004
   0.00000000  0.13333333  0.26666667       0.007
  -0.06666667  0.20000000  0.33333333       0.014
  -0.13333333  0.26666667  0.40000000       0.014
  -0.20000000  0.33333333  0.46666667       0.014
  -0.26666667  0.40000000  0.53333333       0.014
   0.66666667 -0.53333333 -0.40000000       0.014
   0.00000000  0.13333333  0.40000000       0.007
  -0.06666667  0.20000000  0.46666667       0.014
  -0.13333333  0.26666667  0.53333333       0.014
  -0.20000000  0.33333333  0.60000000       0.014
   0.73333333 -0.60000000 -0.33333333       0.014
   0.66666667 -0.53333333 -0.26666667       0.014
   0.60000000 -0.46666667 -0.20000000       0.014
   0.53333333 -0.40000000 -0.13333333       0.014
   0.46666667 -0.33333333 -0.06666667       0.014
   0.40000000 -0.26666667  0.00000000       0.007
   0.00000000  0.13333333  0.53333333       0.007
  -0.06666667  0.20000000  0.60000000       0.014
  -0.13333333  0.26666667  0.66666667       0.014
   0.80000000 -0.66666667 -0.26666667       0.014
   0.73333333 -0.60000000 -0.20000000       0.014
   0.66666667 -0.53333333 -0.13333333       0.014
   0.60000000 -0.46666667 -0.06666667       0.014
   0.53333333 -0.40000000 -0.00000000       0.007
  -0.00000000  0.13333333  0.66666667       0.007
  -0.06666667  0.20000000  0.73333333       0.014
   0.86666667 -0.73333333 -0.20000000       0.014
   0.80000000 -0.66666667 -0.13333333       0.014
   0.73333333 -0.60000000 -0.06666667       0.014
   0.66666667 -0.53333333 -0.00000000       0.007
   0.00000000  0.13333333  0.80000000       0.007
   0.93333333 -0.80000000 -0.13333333       0.014
   0.86666667 -0.73333333 -0.06666667       0.014
   0.80000000 -0.66666667  0.00000000       0.007
   1.00000000 -0.86666667 -0.06666667       0.007
   0.93333333 -0.80000000 -0.00000000       0.007
  -0.00000000  0.26666667  0.53333333       0.007
  -0.06666667  0.33333333  0.60000000       0.014
   0.86666667 -0.60000000 -0.33333333       0.014
   0.80000000 -0.53333333 -0.26666667       0.014
  -0.00000000  0.26666667  0.66666667       0.007
   0.93333333 -0.66666667 -0.26666667       0.014
   0.86666667 -0.60000000 -0.20000000       0.014
   0.80000000 -0.53333333 -0.13333333       0.014
   0.73333333 -0.46666667 -0.06666667       0.014
   0.66666667 -0.40000000 -0.00000000       0.007
   1.00000000 -0.73333333 -0.20000000       0.007
   0.93333333 -0.66666667 -0.13333333       0.014
   0.86666667 -0.60000000 -0.06666667       0.014
   0.80000000 -0.53333333  0.00000000       0.007
   1.00000000 -0.73333333 -0.06666667       0.007
   0.93333333 -0.66666667  0.00000000       0.007
   1.00000000 -0.60000000 -0.20000000       0.007
   0.93333333 -0.53333333 -0.13333333       0.014
   1.00000000 -0.60000000 -0.06666667       0.007
   0.93333333 -0.53333333  0.00000000       0.007
 
 k-points in reciprocal lattice and weights: k-points                                
   0.00000000  0.00000000  0.00000000       0.000
   0.06666667  0.00000000  0.00000000       0.002
   0.13333333  0.00000000  0.00000000       0.002
   0.20000000  0.00000000  0.00000000       0.002
   0.26666667  0.00000000  0.00000000       0.002
   0.33333333  0.00000000  0.00000000       0.002
   0.40000000  0.00000000  0.00000000       0.002
   0.46666667  0.00000000  0.00000000       0.002
   0.06666667  0.06666667  0.00000000       0.002
   0.13333333  0.06666667  0.00000000       0.007
   0.20000000  0.06666667  0.00000000       0.007
   0.26666667  0.06666667  0.00000000       0.007
   0.33333333  0.06666667  0.00000000       0.007
   0.40000000  0.06666667  0.00000000       0.007
   0.46666667  0.06666667  0.00000000       0.007
  -0.46666667  0.06666667  0.00000000       0.007
  -0.40000000  0.06666667  0.00000000       0.007
  -0.33333333  0.06666667  0.00000000       0.007
  -0.26666667  0.06666667  0.00000000       0.007
  -0.20000000  0.06666667  0.00000000       0.007
  -0.13333333  0.06666667  0.00000000       0.007
  -0.06666667  0.06666667  0.00000000       0.004
   0.13333333  0.13333333  0.00000000       0.002
   0.20000000  0.13333333  0.00000000       0.007
   0.26666667  0.13333333  0.00000000       0.007
   0.33333333  0.13333333  0.00000000       0.007
   0.40000000  0.13333333  0.00000000       0.007
   0.46666667  0.13333333  0.00000000       0.007
  -0.46666667  0.13333333  0.00000000       0.007
  -0.40000000  0.13333333  0.00000000       0.007
  -0.33333333  0.13333333  0.00000000       0.007
  -0.26666667  0.13333333  0.00000000       0.007
  -0.20000000  0.13333333  0.00000000       0.007
  -0.13333333  0.13333333  0.00000000       0.004
   0.20000000  0.20000000  0.00000000       0.002
   0.26666667  0.20000000  0.00000000       0.007
   0.33333333  0.20000000  0.00000000       0.007
   0.40000000  0.20000000  0.00000000       0.007
   0.46666667  0.20000000  0.00000000       0.007
  -0.46666667  0.20000000  0.00000000       0.007
  -0.40000000  0.20000000  0.00000000       0.007
  -0.33333333  0.20000000  0.00000000       0.007
  -0.26666667  0.20000000  0.00000000       0.007
  -0.20000000  0.20000000  0.00000000       0.004
   0.26666667  0.26666667  0.00000000       0.002
   0.33333333  0.26666667  0.00000000       0.007
   0.40000000  0.26666667  0.00000000       0.007
   0.46666667  0.26666667  0.00000000       0.007
  -0.46666667  0.26666667  0.00000000       0.007
  -0.40000000  0.26666667  0.00000000       0.007
  -0.33333333  0.26666667  0.00000000       0.007
  -0.26666667  0.26666667  0.00000000       0.004
   0.33333333  0.33333333  0.00000000       0.002
   0.40000000  0.33333333  0.00000000       0.007
   0.46666667  0.33333333  0.00000000       0.007
  -0.46666667  0.33333333  0.00000000       0.007
  -0.40000000  0.33333333  0.00000000       0.007
  -0.33333333  0.33333333  0.00000000       0.004
   0.40000000  0.40000000  0.00000000       0.002
   0.46666667  0.40000000  0.00000000       0.007
  -0.46666667  0.40000000  0.00000000       0.007
  -0.40000000  0.40000000  0.00000000       0.004
   0.46666667  0.46666667  0.00000000       0.002
  -0.46666667  0.46666667  0.00000000       0.004
   0.20000000  0.13333333  0.06666667       0.007
   0.26666667  0.13333333  0.06666667       0.014
   0.33333333  0.13333333  0.06666667       0.014
   0.40000000  0.13333333  0.06666667       0.014
   0.46666667  0.13333333  0.06666667       0.014
  -0.46666667  0.13333333  0.06666667       0.014
   0.26666667  0.20000000  0.06666667       0.007
   0.33333333  0.20000000  0.06666667       0.014
   0.40000000  0.20000000  0.06666667       0.014
   0.46666667  0.20000000  0.06666667       0.014
  -0.46666667  0.20000000  0.06666667       0.014
  -0.40000000  0.20000000  0.06666667       0.014
  -0.33333333  0.20000000  0.06666667       0.014
  -0.26666667  0.20000000  0.06666667       0.014
  -0.20000000  0.20000000  0.06666667       0.014
  -0.13333333  0.20000000  0.06666667       0.007
   0.33333333  0.26666667  0.06666667       0.007
   0.40000000  0.26666667  0.06666667       0.014
   0.46666667  0.26666667  0.06666667       0.014
  -0.46666667  0.26666667  0.06666667       0.014
  -0.40000000  0.26666667  0.06666667       0.014
  -0.33333333  0.26666667  0.06666667       0.014
  -0.26666667  0.26666667  0.06666667       0.014
  -0.20000000  0.26666667  0.06666667       0.007
   0.40000000  0.33333333  0.06666667       0.007
   0.46666667  0.33333333  0.06666667       0.014
  -0.46666667  0.33333333  0.06666667       0.014
  -0.40000000  0.33333333  0.06666667       0.014
  -0.33333333  0.33333333  0.06666667       0.014
  -0.26666667  0.33333333  0.06666667       0.007
   0.46666667  0.40000000  0.06666667       0.007
  -0.46666667  0.40000000  0.06666667       0.014
  -0.40000000  0.40000000  0.06666667       0.014
  -0.33333333  0.40000000  0.06666667       0.007
  -0.46666667  0.46666667  0.06666667       0.007
  -0.40000000  0.46666667  0.06666667       0.007
   0.40000000  0.26666667  0.13333333       0.007
   0.46666667  0.26666667  0.13333333       0.014
  -0.46666667  0.26666667  0.13333333       0.014
  -0.40000000  0.26666667  0.13333333       0.014
   0.46666667  0.33333333  0.13333333       0.007
  -0.46666667  0.33333333  0.13333333       0.014
  -0.40000000  0.33333333  0.13333333       0.014
  -0.33333333  0.33333333  0.13333333       0.014
  -0.26666667  0.33333333  0.13333333       0.014
  -0.20000000  0.33333333  0.13333333       0.007
  -0.46666667  0.40000000  0.13333333       0.007
  -0.40000000  0.40000000  0.13333333       0.014
  -0.33333333  0.40000000  0.13333333       0.014
  -0.26666667  0.40000000  0.13333333       0.007
  -0.40000000  0.46666667  0.13333333       0.007
  -0.33333333  0.46666667  0.13333333       0.007
  -0.40000000  0.40000000  0.20000000       0.007
  -0.33333333  0.40000000  0.20000000       0.014
  -0.33333333  0.46666667  0.20000000       0.007
  -0.26666667  0.46666667  0.20000000       0.007
 
 position of ions in fractional coordinates (direct lattice) 
   0.87500000  0.87500000  0.87500000
   0.12500000  0.12500000  0.12500000
 
 position of ions in cartesian coordinates  (Angst):
   5.07500000  5.07500000  5.07500000
   0.72500000  0.72500000  0.72500000
 


--------------------------------------------------------------------------------------------------------


 k-point  1 :   0.0000 0.0000 0.0000  plane waves:     137
 k-point  2 :   0.0667 0.0000 0.0000  plane waves:     153
 k-point  3 :   0.1333 0.0000 0.0000  plane waves:     153
 k-point  4 :   0.2000 0.0000 0.0000  plane waves:     150
 k-point  5 :   0.2667 0.0000 0.0000  plane waves:     150
 k-point  6 :   0.3333 0.0000 0.0000  plane waves:     144
 k-point  7 :   0.4000 0.0000 0.0000  plane waves:     147
 k-point  8 :   0.4667 0.0000 0.0000  plane waves:     147
 k-point  9 :   0.0667 0.0667 0.0000  plane waves:     153
 k-point 10 :   0.1333 0.0667 0.0000  plane waves:     151
 k-point 11 :   0.2000 0.0667 0.0000  plane waves:     151
 k-point 12 :   0.2667 0.0667 0.0000  plane waves:     148
 k-point 13 :   0.3333 0.0667 0.0000  plane waves:     146
 k-point 14 :   0.4000 0.0667 0.0000  plane waves:     148
 k-point 15 :   0.4667 0.0667 0.0000  plane waves:     147
 k-point 16 :  -0.4667 0.0667 0.0000  plane waves:     147
 k-point 17 :  -0.4000 0.0667 0.0000  plane waves:     147
 k-point 18 :  -0.3333 0.0667 0.0000  plane waves:     147
 k-point 19 :  -0.2667 0.0667 0.0000  plane waves:     148
 k-point 20 :  -0.2000 0.0667 0.0000  plane waves:     149
 k-point 21 :  -0.1333 0.0667 0.0000  plane waves:     152
 k-point 22 :  -0.0667 0.0667 0.0000  plane waves:     149
 k-point 23 :   0.1333 0.1333 0.0000  plane waves:     153
 k-point 24 :   0.2000 0.1333 0.0000  plane waves:     148
 k-point 25 :   0.2667 0.1333 0.0000  plane waves:     146
 k-point 26 :   0.3333 0.1333 0.0000  plane waves:     145
 k-point 27 :   0.4000 0.1333 0.0000  plane waves:     147
 k-point 28 :   0.4667 0.1333 0.0000  plane waves:     147
 k-point 29 :  -0.4667 0.1333 0.0000  plane waves:     145
 k-point 30 :  -0.4000 0.1333 0.0000  plane waves:     148
 k-point 31 :  -0.3333 0.1333 0.0000  plane waves:     146
 k-point 32 :  -0.2667 0.1333 0.0000  plane waves:     148
 k-point 33 :  -0.2000 0.1333 0.0000  plane waves:     148
 k-point 34 :  -0.1333 0.1333 0.0000  plane waves:     145
 k-point 35 :   0.2000 0.2000 0.0000  plane waves:     149
 k-point 36 :   0.2667 0.2000 0.0000  plane waves:     145
 k-point 37 :   0.3333 0.2000 0.0000  plane waves:     143
 k-point 38 :   0.4000 0.2000 0.0000  plane waves:     145
 k-point 39 :   0.4667 0.2000 0.0000  plane waves:     147
 k-point 40 :  -0.4667 0.2000 0.0000  plane waves:     146
 k-point 41 :  -0.4000 0.2000 0.0000  plane waves:     149
 k-point 42 :  -0.3333 0.2000 0.0000  plane waves:     146
 k-point 43 :  -0.2667 0.2000 0.0000  plane waves:     146
 k-point 44 :  -0.2000 0.2000 0.0000  plane waves:     144
 k-point 45 :   0.2667 0.2667 0.0000  plane waves:     149
 k-point 46 :   0.3333 0.2667 0.0000  plane waves:     143
 k-point 47 :   0.4000 0.2667 0.0000  plane waves:     143
 k-point 48 :   0.4667 0.2667 0.0000  plane waves:     145
 k-point 49 :  -0.4667 0.2667 0.0000  plane waves:     145
 k-point 50 :  -0.4000 0.2667 0.0000  plane waves:     146
 k-point 51 :  -0.3333 0.2667 0.0000  plane waves:     141
 k-point 52 :  -0.2667 0.2667 0.0000  plane waves:     142
 k-point 53 :   0.3333 0.3333 0.0000  plane waves:     141
 k-point 54 :   0.4000 0.3333 0.0000  plane waves:     143
 k-point 55 :   0.4667 0.3333 0.0000  plane waves:     141
 k-point 56 :  -0.4667 0.3333 0.0000  plane waves:     142
 k-point 57 :  -0.4000 0.3333 0.0000  plane waves:     142
 k-point 58 :  -0.3333 0.3333 0.0000  plane waves:     142
 k-point 59 :   0.4000 0.4000 0.0000  plane waves:     141
 k-point 60 :   0.4667 0.4000 0.0000  plane waves:     146
 k-point 61 :  -0.4667 0.4000 0.0000  plane waves:     142
 k-point 62 :  -0.4000 0.4000 0.0000  plane waves:     142
 k-point 63 :   0.4667 0.4667 0.0000  plane waves:     150
 k-point 64 :  -0.4667 0.4667 0.0000  plane waves:     150
 k-point 65 :   0.2000 0.1333 0.0667  plane waves:     153
 k-point 66 :   0.2667 0.1333 0.0667  plane waves:     150
 k-point 67 :   0.3333 0.1333 0.0667  plane waves:     145
 k-point 68 :   0.4000 0.1333 0.0667  plane waves:     146
 k-point 69 :   0.4667 0.1333 0.0667  plane waves:     148
 k-point 70 :  -0.4667 0.1333 0.0667  plane waves:     151
 k-point 71 :   0.2667 0.2000 0.0667  plane waves:     147
 k-point 72 :   0.3333 0.2000 0.0667  plane waves:     145
 k-point 73 :   0.4000 0.2000 0.0667  plane waves:     146
 k-point 74 :   0.4667 0.2000 0.0667  plane waves:     145
 k-point 75 :  -0.4667 0.2000 0.0667  plane waves:     145
 k-point 76 :  -0.4000 0.2000 0.0667  plane waves:     145
 k-point 77 :  -0.3333 0.2000 0.0667  plane waves:     146
 k-point 78 :  -0.2667 0.2000 0.0667  plane waves:     145
 k-point 79 :  -0.2000 0.2000 0.0667  plane waves:     145
 k-point 80 :  -0.1333 0.2000 0.0667  plane waves:     145
 k-point 81 :   0.3333 0.2667 0.0667  plane waves:     143
 k-point 82 :   0.4000 0.2667 0.0667  plane waves:     145
 k-point 83 :   0.4667 0.2667 0.0667  plane waves:     143
 k-point 84 :  -0.4667 0.2667 0.0667  plane waves:     146
 k-point 85 :  -0.4000 0.2667 0.0667  plane waves:     145
 k-point 86 :  -0.3333 0.2667 0.0667  plane waves:     147
 k-point 87 :  -0.2667 0.2667 0.0667  plane waves:     144
 k-point 88 :  -0.2000 0.2667 0.0667  plane waves:     144
 k-point 89 :   0.4000 0.3333 0.0667  plane waves:     144
 k-point 90 :   0.4667 0.3333 0.0667  plane waves:     142
 k-point 91 :  -0.4667 0.3333 0.0667  plane waves:     144
 k-point 92 :  -0.4000 0.3333 0.0667  plane waves:     144
 k-point 93 :  -0.3333 0.3333 0.0667  plane waves:     144
 k-point 94 :  -0.2667 0.3333 0.0667  plane waves:     142
 k-point 95 :   0.4667 0.4000 0.0667  plane waves:     141
 k-point 96 :  -0.4667 0.4000 0.0667  plane waves:     142
 k-point 97 :  -0.4000 0.4000 0.0667  plane waves:     141
 k-point 98 :  -0.3333 0.4000 0.0667  plane waves:     144
 k-point 99 :  -0.4667 0.4667 0.0667  plane waves:     146
 k-point ** :  -0.4000 0.4667 0.0667  plane waves:     141
 k-point ** :   0.4000 0.2667 0.1333  plane waves:     146
 k-point ** :   0.4667 0.2667 0.1333  plane waves:     145
 k-point ** :  -0.4667 0.2667 0.1333  plane waves:     148
 k-point ** :  -0.4000 0.2667 0.1333  plane waves:     145
 k-point ** :   0.4667 0.3333 0.1333  plane waves:     145
 k-point ** :  -0.4667 0.3333 0.1333  plane waves:     147
 k-point ** :  -0.4000 0.3333 0.1333  plane waves:     146
 k-point ** :  -0.3333 0.3333 0.1333  plane waves:     146
 k-point ** :  -0.2667 0.3333 0.1333  plane waves:     146
 k-point ** :  -0.2000 0.3333 0.1333  plane waves:     145
 k-point ** :  -0.4667 0.4000 0.1333  plane waves:     145
 k-point ** :  -0.4000 0.4000 0.1333  plane waves:     144
 k-point ** :  -0.3333 0.4000 0.1333  plane waves:     147
 k-point ** :  -0.2667 0.4000 0.1333  plane waves:     146
 k-point ** :  -0.4000 0.4667 0.1333  plane waves:     143
 k-point ** :  -0.3333 0.4667 0.1333  plane waves:     145
 k-point ** :  -0.4000 0.4000 0.2000  plane waves:     142
 k-point ** :  -0.3333 0.4000 0.2000  plane waves:     149
 k-point ** :  -0.3333 0.4667 0.2000  plane waves:     146
 k-point ** :  -0.2667 0.4667 0.2000  plane waves:     149

 maximum and minimum number of plane-waves per node :       153      137

 maximum number of plane-waves:       153
 maximum index in each direction: 
   IXMAX=    4   IYMAX=    3   IZMAX=    3
   IXMIN=   -4   IYMIN=   -4   IZMIN=   -3

 WARNING: aliasing errors must be expected set NGX to  18 to avoid them
 WARNING: aliasing errors must be expected set NGY to  16 to avoid them
 WARNING: aliasing errors must be expected set NGZ to  14 to avoid them
 aliasing errors are usually negligible using standard VASP settings
 and one can safely disregard these warnings

 serial   3D FFT for wavefunctions
 parallel 3D FFT for charge:
    minimum data exchange during FFTs selected (reduces bandwidth)


 total amount of memory used by VASP on root node    31753. kBytes
========================================================================

   base      :      30000. kBytes
   nonl-proj :       1233. kBytes
   fftplans  :         48. kBytes
   grid      :        129. kBytes
   one-center:          6. kBytes
   wavefun   :        337. kBytes
 
     INWAV:  cpu time    0.0010: real time    0.0001
 Broyden mixing: mesh for mixing (old mesh)
   NGX =  7   NGY =  7   NGZ =  7
  (NGX  = 24   NGY  = 24   NGZ  = 24)
  gives a total of    343 points

 initial charge density was supplied:
 charge density of overlapping atoms calculated
 number of electron       8.0000000 magnetization 
 keeping initial charge density in first step


--------------------------------------------------------------------------------------------------------


 Maximum index for augmentation-charges          160 (set IRDMAX)


--------------------------------------------------------------------------------------------------------


 First call to EWALD:  gamma=   0.485
 Maximum number of real-space cells 3x 3x 3
 Maximum number of reciprocal cells 3x 3x 3

 FEWALD executed in parallel
    FEWALD:  cpu time    0.0020: real time    0.0021


----------------------------------------- Iteration    1(   1)  ---------------------------------------


    POTLOK:  cpu time    0.0020: real time    0.0021
    SETDIJ:  cpu time    0.0010: real time    0.0015
     EDDAV:  cpu time    0.4279: real time    0.4274
       DOS:  cpu time    0.0010: real time    0.0009
    --------------------------------------------
      LOOP:  cpu time    0.4329: real time    0.4756

 eigenvalue-minimisations  :  4736
 total energy-change (2. order) :-0.9205553E+01  (-0.1366804E+03)
 number of electron       8.0000000 magnetization 
 augmentation part        8.0000000 magnetization 

 Free energy of the ion-electron system (eV)
  ---------------------------------------------------
  alpha Z        PSCENC =         2.76051321
  Ewald energy   TEWEN  =      -213.98274834
  -Hartree energ DENC   =       -14.16697611
  -exchange      EXHF   =         0.00000000
  -V(xc)+E(xc)   XCENC  =       -19.33121656
  PAW double counting   =        65.95520812      -30.76852678
  entropy T*S    EENTRO =        -0.00002121
  eigenvalues    EBANDS =        -5.69937418
  atomic energy  EATOM  =       206.02758906
  Solvation  Ediel_sol  =         0.00000000
  ---------------------------------------------------
  free energy    TOTEN  =        -9.20555279 eV

  energy without entropy =       -9.20553158  energy(sigma->0) =       -9.20554219


--------------------------------------------------------------------------------------------------------




----------------------------------------- Iteration    1(   2)  ---------------------------------------


     EDDAV:  cpu time    0.5359: real time    0.5358
       DOS:  cpu time    0.0010: real time    0.0005
    --------------------------------------------
      LOOP:  cpu time    0.5379: real time    0.5409

 eigenvalue-minimisations  :  5424
 total energy-change (2. order) :-0.1340362E+01  (-0.1340319E+01)
 number of electron       8.0000000 magnetization 
 augmentation part        8.0000000 magnetization 

 Free energy of the ion-electron system (eV)
  ---------------------------------------------------
  alpha Z        PSCENC =         2.76051321
  Ewald energy   TEWEN  =      -213.98274834
  -Hartree energ DENC   =       -14.16697611
  -exchange      EXHF   =         0.00000000
  -V(xc)+E(xc)   XCENC  =       -19.33121656
  PAW double counting   =        65.95520812      -30.76852678
  entropy T*S    EENTRO =        -0.00000000
  eigenvalues    EBANDS =        -7.03975718
  atomic energy  EATOM  =       206.02758906
  Solvation  Ediel_sol  =         0.00000000
  ---------------------------------------------------
  free energy    TOTEN  =       -10.54591458 eV

  energy without entropy =      -10.54591458  energy(sigma->0) =      -10.54591458


--------------------------------------------------------------------------------------------------------




----------------------------------------- Iteration    1(   3)  ---------------------------------------


     EDDAV:  cpu time    0.4939: real time    0.4940
       DOS:  cpu time    0.0010: real time    0.0006
    --------------------------------------------
      LOOP:  cpu time    0.4949: real time    0.5031

 eigenvalue-minimisations  :  5008
 total energy-change (2. order) :-0.2006532E-02  (-0.2006532E-02)
 number of electron       8.0000000 magnetization 
 augmentation part        8.0000000 magnetization 

 Free energy of the ion-electron system (eV)
  ---------------------------------------------------
  alpha Z        PSCENC =         2.76051321
  Ewald energy   TEWEN  =      -213.98274834
  -Hartree energ DENC   =       -14.16697611
  -exchange      EXHF   =         0.00000000
  -V(xc)+E(xc)   XCENC  =       -19.33121656
  PAW double counting   =        65.95520812      -30.76852678
  entropy T*S    EENTRO =        -0.00000000
  eigenvalues    EBANDS =        -7.04176371
  atomic energy  EATOM  =       206.02758906
  Solvation  Ediel_sol  =         0.00000000
  ---------------------------------------------------
  free energy    TOTEN  =       -10.54792112 eV

  energy without entropy =      -10.54792112  energy(sigma->0) =      -10.54792112


--------------------------------------------------------------------------------------------------------




----------------------------------------- Iteration    1(   4)  ---------------------------------------


     EDDAV:  cpu time    0.6779: real time    0.6780
       DOS:  cpu time    0.0010: real time    0.0005
    --------------------------------------------
      LOOP:  cpu time    0.6789: real time    0.6830

 eigenvalue-minimisations  :  6160
 total energy-change (2. order) :-0.9575187E-06  (-0.9574978E-06)
 number of electron       8.0000000 magnetization 
 augmentation part        8.0000000 magnetization 

 Free energy of the ion-electron system (eV)
  ---------------------------------------------------
  alpha Z        PSCENC =         2.76051321
  Ewald energy   TEWEN  =      -213.98274834
  -Hartree energ DENC   =       -14.16697611
  -exchange      EXHF   =         0.00000000
  -V(xc)+E(xc)   XCENC  =       -19.33121656
  PAW double counting   =        65.95520812      -30.76852678
  entropy T*S    EENTRO =        -0.00000000
  eigenvalues    EBANDS =        -7.04176467
  atomic energy  EATOM  =       206.02758906
  Solvation  Ediel_sol  =         0.00000000
  ---------------------------------------------------
  free energy    TOTEN  =       -10.54792207 eV

  energy without entropy =      -10.54792207  energy(sigma->0) =      -10.54792207


--------------------------------------------------------------------------------------------------------




----------------------------------------- Iteration    1(   5)  ---------------------------------------


     EDDAV:  cpu time    0.4859: real time    0.4863
       DOS:  cpu time    0.0000: real time    0.0005
    CHARGE:  cpu time    0.0050: real time    0.0043
    MIXING:  cpu time    0.0000: real time    0.0003
    --------------------------------------------
      LOOP:  cpu time    0.4919: real time    0.5002

 eigenvalue-minimisations  :  4944
 total energy-change (2. order) :-0.1620037E-10  (-0.7959266E-11)
 number of electron       7.9999931 magnetization 
 augmentation part       -0.4625169 magnetization 

 Broyden mixing:
  rms(total) = 0.24784E+00    rms(broyden)= 0.24713E+00
  rms(prec ) = 0.68136E+00
  weight for this iteration     100.00

 Free energy of the ion-electron system (eV)
  ---------------------------------------------------
  alpha Z        PSCENC =         2.76051321
  Ewald energy   TEWEN  =      -213.98274834
  -Hartree energ DENC   =       -14.16697611
  -exchange      EXHF   =         0.00000000
  -V(xc)+E(xc)   XCENC  =       -19.33121656
  PAW double counting   =        65.95520812      -30.76852678
  entropy T*S    EENTRO =        -0.00000000
  eigenvalues    EBANDS =        -7.04176467
  atomic energy  EATOM  =       206.02758906
  Solvation  Ediel_sol  =         0.00000000
  ---------------------------------------------------
  free energy    TOTEN  =       -10.54792207 eV

  energy without entropy =      -10.54792207  energy(sigma->0) =      -10.54792207


--------------------------------------------------------------------------------------------------------




----------------------------------------- Iteration    1(   6)  ---------------------------------------


    POTLOK:  cpu time    0.0010: real time    0.0017
    SETDIJ:  cpu time    0.0010: real time    0.0014
     EDDAV:  cpu time    0.4489: real time    0.4483
       DOS:  cpu time    0.0000: real time    0.0006
    CHARGE:  cpu time    0.0040: real time    0.0041
    MIXING:  cpu time    0.0010: real time    0.0003
    --------------------------------------------
      LOOP:  cpu time    0.4569: real time    0.4608

 eigenvalue-minimisations  :  4768
 total energy-change (2. order) : 0.5610628E-01  (-0.2604982E-02)
 number of electron       7.9999931 magnetization 
 augmentation part       -0.4595302 magnetization 

 Broyden mixing:
  rms(total) = 0.15084E+00    rms(broyden)= 0.15078E+00
  rms(prec ) = 0.41671E+00
  weight for this iteration     100.00

 eigenvalues of (default mixing * dielectric matrix)
  average eigenvalue GAMMA=   2.5504
  2.5504

 Free energy of the ion-electron system (eV)
  ---------------------------------------------------
  alpha Z        PSCENC =         2.76051321
  Ewald energy   TEWEN  =      -213.98274834
  -Hartree energ DENC   =       -15.27440002
  -exchange      EXHF   =         0.00000000
  -V(xc)+E(xc)   XCENC  =       -19.14661859
  PAW double counting   =        68.33392763      -33.19064012
  entropy T*S    EENTRO =        -0.00000000
  eigenvalues    EBANDS =        -6.01943864
  atomic energy  EATOM  =       206.02758906
  Solvation  Ediel_sol  =         0.00000000
  ---------------------------------------------------
  free energy    TOTEN  =       -10.49181579 eV

  energy without entropy =      -10.49181579  energy(sigma->0) =      -10.49181579


--------------------------------------------------------------------------------------------------------




----------------------------------------- Iteration    1(   7)  ---------------------------------------


    POTLOK:  cpu time    0.0010: real time    0.0015
    SETDIJ:  cpu time    0.0010: real time    0.0014
     EDDAV:  cpu time    0.5569: real time    0.5568
       DOS:  cpu time    0.0000: real time    0.0005
    CHARGE:  cpu time    0.0050: real time    0.0041
    MIXING:  cpu time    0.0000: real time    0.0002
    --------------------------------------------
      LOOP:  cpu time    0.5649: real time    0.5690

 eigenvalue-minimisations  :  5504
 total energy-change (2. order) : 0.3264814E-01  (-0.6330598E-02)
 number of electron       7.9999932 magnetization 
 augmentation part       -0.4563636 magnetization 

 Broyden mixing:
  rms(total) = 0.10218E-01    rms(broyden)= 0.10102E-01
  rms(prec ) = 0.25733E-01
  weight for this iteration     100.00

 eigenvalues of (default mixing * dielectric matrix)
  average eigenvalue GAMMA=   2.5362
  2.5362  2.5362

 Free energy of the ion-electron system (eV)
  ---------------------------------------------------
  alpha Z        PSCENC =         2.76051321
  Ewald energy   TEWEN  =      -213.98274834
  -Hartree energ DENC   =       -17.26126805
  -exchange      EXHF   =         0.00000000
  -V(xc)+E(xc)   XCENC  =       -18.80602781
  PAW double counting   =        71.55193950      -36.46294300
  entropy T*S    EENTRO =        -0.00000000
  eigenvalues    EBANDS =        -4.28622223
  atomic energy  EATOM  =       206.02758906
  Solvation  Ediel_sol  =         0.00000000
  ---------------------------------------------------
  free energy    TOTEN  =       -10.45916765 eV

  energy without entropy =      -10.45916765  energy(sigma->0) =      -10.45916765


--------------------------------------------------------------------------------------------------------




----------------------------------------- Iteration    1(   8)  ---------------------------------------


    POTLOK:  cpu time    0.0010: real time    0.0015
    SETDIJ:  cpu time    0.0010: real time    0.0014
     EDDAV:  cpu time    0.4339: real time    0.4333
       DOS:  cpu time    0.0000: real time    0.0006
    CHARGE:  cpu time    0.0040: real time    0.0041
    MIXING:  cpu time    0.0000: real time    0.0002
    --------------------------------------------
      LOOP:  cpu time    0.4409: real time    0.4493

 eigenvalue-minimisations  :  4656
 total energy-change (2. order) :-0.1271563E-02  (-0.2000655E-03)
 number of electron       7.9999932 magnetization 
 augmentation part       -0.4566311 magnetization 

 Broyden mixing:
  rms(total) = 0.27250E-02    rms(broyden)= 0.27044E-02
  rms(prec ) = 0.89979E-02
  weight for this iteration     100.00

 eigenvalues of (default mixing * dielectric matrix)
  average eigenvalue GAMMA=   2.2002
  1.1738  3.0406  2.3862

 Free energy of the ion-electron system (eV)
  ---------------------------------------------------
  alpha Z        PSCENC =         2.76051321
  Ewald energy   TEWEN  =      -213.98274834
  -Hartree energ DENC   =       -17.23327222
  -exchange      EXHF   =         0.00000000
  -V(xc)+E(xc)   XCENC  =       -18.80719844
  PAW double counting   =        70.92385133      -35.81720548
  entropy T*S    EENTRO =        -0.00000000
  eigenvalues    EBANDS =        -4.33196834
  atomic energy  EATOM  =       206.02758906
  Solvation  Ediel_sol  =         0.00000000
  ---------------------------------------------------
  free energy    TOTEN  =       -10.46043922 eV

  energy without entropy =      -10.46043922  energy(sigma->0) =      -10.46043922


--------------------------------------------------------------------------------------------------------




----------------------------------------- Iteration    1(   9)  ---------------------------------------


    POTLOK:  cpu time    0.0010: real time    0.0015
    SETDIJ:  cpu time    0.0020: real time    0.0014
     EDDAV:  cpu time    0.6219: real time    0.6215
       DOS:  cpu time    0.0000: real time    0.0005
    CHARGE:  cpu time    0.0040: real time    0.0041
    MIXING:  cpu time    0.0000: real time    0.0002
    --------------------------------------------
      LOOP:  cpu time    0.6299: real time    0.6338

 eigenvalue-minimisations  :  5920
 total energy-change (2. order) :-0.1563094E-03  (-0.1824706E-04)
 number of electron       7.9999932 magnetization 
 augmentation part       -0.4566589 magnetization 

 Broyden mixing:
  rms(total) = 0.11876E-02    rms(broyden)= 0.11858E-02
  rms(prec ) = 0.30759E-02
  weight for this iteration     100.00

 eigenvalues of (default mixing * dielectric matrix)
  average eigenvalue GAMMA=   2.3060
  0.9605  3.2226  2.5205  2.5205

 Free energy of the ion-electron system (eV)
  ---------------------------------------------------
  alpha Z        PSCENC =         2.76051321
  Ewald energy   TEWEN  =      -213.98274834
  -Hartree energ DENC   =       -17.28403144
  -exchange      EXHF   =         0.00000000
  -V(xc)+E(xc)   XCENC  =       -18.79854914
  PAW double counting   =        70.86423047      -35.75528286
  entropy T*S    EENTRO =        -0.00000000
  eigenvalues    EBANDS =        -4.29231649
  atomic energy  EATOM  =       206.02758906
  Solvation  Ediel_sol  =         0.00000000
  ---------------------------------------------------
  free energy    TOTEN  =       -10.46059553 eV

  energy without entropy =      -10.46059553  energy(sigma->0) =      -10.46059553


--------------------------------------------------------------------------------------------------------




----------------------------------------- Iteration    1(  10)  ---------------------------------------


    POTLOK:  cpu time    0.0010: real time    0.0015
    SETDIJ:  cpu time    0.0010: real time    0.0014
     EDDAV:  cpu time    0.4689: real time    0.4673
       DOS:  cpu time    0.0000: real time    0.0005
    CHARGE:  cpu time    0.0040: real time    0.0041
    MIXING:  cpu time    0.0000: real time    0.0002
    --------------------------------------------
      LOOP:  cpu time    0.4759: real time    0.4835

 eigenvalue-minimisations  :  4896
 total energy-change (2. order) :-0.1096284E-04  (-0.2089844E-05)
 number of electron       7.9999932 magnetization 
 augmentation part       -0.4565449 magnetization 

 Broyden mixing:
  rms(total) = 0.20616E-03    rms(broyden)= 0.20231E-03
  rms(prec ) = 0.62060E-03
  weight for this iteration     100.00

 eigenvalues of (default mixing * dielectric matrix)
  average eigenvalue GAMMA=   2.1145
  3.3732  2.7103  2.1725  0.9487  1.3676

 Free energy of the ion-electron system (eV)
  ---------------------------------------------------
  alpha Z        PSCENC =         2.76051321
  Ewald energy   TEWEN  =      -213.98274834
  -Hartree energ DENC   =       -17.29585977
  -exchange      EXHF   =         0.00000000
  -V(xc)+E(xc)   XCENC  =       -18.79855218
  PAW double counting   =        70.91531972      -35.80829759
  entropy T*S    EENTRO =        -0.00000000
  eigenvalues    EBANDS =        -4.27857060
  atomic energy  EATOM  =       206.02758906
  Solvation  Ediel_sol  =         0.00000000
  ---------------------------------------------------
  free energy    TOTEN  =       -10.46060649 eV

  energy without entropy =      -10.46060649  energy(sigma->0) =      -10.46060649


--------------------------------------------------------------------------------------------------------




----------------------------------------- Iteration    1(  11)  ---------------------------------------


    POTLOK:  cpu time    0.0010: real time    0.0015
    SETDIJ:  cpu time    0.0010: real time    0.0014
     EDDAV:  cpu time    0.6489: real time    0.6484
       DOS:  cpu time    0.0010: real time    0.0006
    CHARGE:  cpu time    0.0040: real time    0.0041
    MIXING:  cpu time    0.0000: real time    0.0002
    --------------------------------------------
      LOOP:  cpu time    0.6569: real time    0.6609

 eigenvalue-minimisations  :  6032
 total energy-change (2. order) : 0.1183461E-05  (-0.6951875E-07)
 number of electron       7.9999932 magnetization 
 augmentation part       -0.4565666 magnetization 

 Broyden mixing:
  rms(total) = 0.37741E-04    rms(broyden)= 0.37615E-04
  rms(prec ) = 0.63355E-04
  weight for this iteration     100.00

 eigenvalues of (default mixing * dielectric matrix)
  average eigenvalue GAMMA=   2.1500
  3.3617  2.8171  2.4978  2.2569  0.9681  0.9982

 Free energy of the ion-electron system (eV)
  ---------------------------------------------------
  alpha Z        PSCENC =         2.76051321
  Ewald energy   TEWEN  =      -213.98274834
  -Hartree energ DENC   =       -17.29286223
  -exchange      EXHF   =         0.00000000
  -V(xc)+E(xc)   XCENC  =       -18.79878981
  PAW double counting   =        70.89637857      -35.78874872
  entropy T*S    EENTRO =        -0.00000000
  eigenvalues    EBANDS =        -4.28193705
  atomic energy  EATOM  =       206.02758906
  Solvation  Ediel_sol  =         0.00000000
  ---------------------------------------------------
  free energy    TOTEN  =       -10.46060531 eV

  energy without entropy =      -10.46060531  energy(sigma->0) =      -10.46060531


--------------------------------------------------------------------------------------------------------




----------------------------------------- Iteration    1(  12)  ---------------------------------------


    POTLOK:  cpu time    0.0010: real time    0.0015
    SETDIJ:  cpu time    0.0020: real time    0.0013
     EDDAV:  cpu time    0.2170: real time    0.2171
       DOS:  cpu time    0.0000: real time    0.0006
    --------------------------------------------
      LOOP:  cpu time    0.2210: real time    0.2291

 eigenvalue-minimisations  :  2544
 total energy-change (2. order) : 0.1182802E-06  (-0.3453189E-08)
 number of electron       7.9999932 magnetization 
 augmentation part       -0.4565666 magnetization 

 Free energy of the ion-electron system (eV)
  ---------------------------------------------------
  alpha Z        PSCENC =         2.76051321
  Ewald energy   TEWEN  =      -213.98274834
  -Hartree energ DENC   =       -17.29295688
  -exchange      EXHF   =         0.00000000
  -V(xc)+E(xc)   XCENC  =       -18.79878252
  PAW double counting   =        70.89563896      -35.78792969
  entropy T*S    EENTRO =        -0.00000000
  eigenvalues    EBANDS =        -4.28192900
  atomic energy  EATOM  =       206.02758906
  Solvation  Ediel_sol  =         0.00000000
  ---------------------------------------------------
  free energy    TOTEN  =       -10.46060519 eV

  energy without entropy =      -10.46060519  energy(sigma->0) =      -10.46060519


--------------------------------------------------------------------------------------------------------




 average (electrostatic) potential at core
  the test charge radii are     0.9892
  (the norm of the test charge is              1.0000)
       1 -85.3665       2 -85.3665
 
 
 
 E-fermi :   4.4989     XC(G=0):  -8.6580     alpha+bet : -9.8341


 k-point     1 :       0.0000    0.0000    0.0000
  band No.  band energies     occupation 
      1      -6.7212      2.00000
      2       4.0585      2.00000
      3       4.0585      2.00000
      4       4.0588      2.00000
      5       5.2629      0.00000
      6       6.5318      0.00000
      7       6.5318      0.00000
      8       6.5321      0.00000
      9      11.2520      0.00000
     10      12.0620      0.00000
     11      12.0620      0.00000
     12      14.7762      0.00000
     13      14.7762      0.00000
     14      14.7763      0.00000
     15      18.2816      0.00000
     16      26.0487      0.00000

 k-point     2 :       0.0667    0.0000    0.0000
  band No.  band energies     occupation 
      1      -6.6741      2.00000
      2       3.3541      2.00000
      3       3.9679      2.00000
      4       3.9683      2.00000
      5       5.6439      0.00000
      6       6.6392      0.00000
      7       6.6396      0.00000
      8       6.7455      0.00000
      9      11.4615      0.00000
     10      11.7924      0.00000
     11      11.7924      0.00000
     12      14.5587      0.00000
     13      15.1203      0.00000
     14      15.1205      0.00000
     15      18.6427      0.00000
     16      24.6873      0.00000

 k-point     3 :       0.1333    0.0000    0.0000
  band No.  band energies     occupation 
      1      -6.5284      2.00000
      2       2.2556      2.00000
      3       3.7778      2.00000
      4       3.7782      2.00000
      5       5.7068      0.00000
      6       6.9178      0.00000
      7       6.9183      0.00000
      8       7.5846      0.00000
      9      11.4734      0.00000
     10      11.4734      0.00000
     11      12.0086      0.00000
     12      14.2036      0.00000
     13      15.9759      0.00000
     14      15.9761      0.00000
     15      19.5264      0.00000
     16      23.2353      0.00000

 k-point     4 :       0.2000    0.0000    0.0000
  band No.  band energies     occupation 
      1      -6.2898      2.00000
      2       1.1484      2.00000
      3       3.5540      2.00000
      4       3.5544      2.00000
      5       5.5227      0.00000
      6       7.2251      0.00000
      7       7.2256      0.00000
      8       8.6750      0.00000
      9      11.3086      0.00000
     10      11.3087      0.00000
     11      12.4745      0.00000
     12      14.2574      0.00000
     13      17.0689      0.00000
     14      17.0691      0.00000
     15      20.5315      0.00000
     16      21.7633      0.00000

 k-point     5 :       0.2667    0.0000    0.0000
  band No.  band energies     occupation 
      1      -5.9677      2.00000
      2       0.1018      2.00000
      3       3.3461      2.00000
      4       3.3465      2.00000
      5       5.3051      0.00000
      6       7.4362      0.00000
      7       7.4368      0.00000
      8       9.7738      0.00000
      9      11.4608      0.00000
     10      11.4609      0.00000
     11      12.4344      0.00000
     12      15.0590      0.00000
     13      18.1160      0.00000
     14      18.1162      0.00000
     15      20.0806      0.00000
     16      20.3696      0.00000

 k-point     6 :       0.3333    0.0000    0.0000
  band No.  band energies     occupation 
      1      -5.5819      2.00000
      2      -0.8386      2.00000
      3       3.1814      2.00000
      4       3.1818      2.00000
      5       5.1231      0.00000
      6       7.5170      0.00000
      7       7.5175      0.00000
      8      10.8011      0.00000
      9      12.0114      0.00000
     10      12.0115      0.00000
     11      12.3036      0.00000
     12      15.9806      0.00000
     13      17.9055      0.00000
     14      17.9058      0.00000
     15      19.2524      0.00000
     16      20.5046      0.00000

 k-point     7 :       0.4000    0.0000    0.0000
  band No.  band energies     occupation 
      1      -5.1830      2.00000
      2      -1.6156      2.00000
      3       3.0636      2.00000
      4       3.0640      2.00000
      5       4.9924      0.00000
      6       7.5040      0.00000
      7       7.5046      0.00000
      8      11.3921      0.00000
      9      12.6662      0.00000
     10      12.8393      0.00000
     11      12.8396      0.00000
     12      15.9026      0.00000
     13      16.5114      0.00000
     14      16.5116      0.00000
     15      19.6141      0.00000
     16      21.8990      0.00000

 k-point     8 :       0.4667    0.0000    0.0000
  band No.  band energies     occupation 
      1      -4.8896      2.00000
      2      -2.0975      2.00000
      3       3.0050      2.00000
      4       3.0054      2.00000
      5       4.9277      0.00000
      6       7.4790      0.00000
      7       7.4795      0.00000
      8      11.4626      0.00000
      9      13.6434      0.00000
     10      13.8973      0.00000
     11      13.8976      0.00000
     12      14.9626      0.00000
     13      15.1764      0.00000
     14      15.1766      0.00000
     15      21.0846      0.00000
     16      23.0927      0.00000

 k-point     9 :       0.0667    0.0667    0.0000
  band No.  band energies     occupation 
      1      -6.6576      2.00000
      2       3.3561      2.00000
      3       3.8132      2.00000
      4       3.8135      2.00000
      5       5.9233      0.00000
      6       6.3727      0.00000
      7       6.8429      0.00000
      8       6.8431      0.00000
      9      11.4414      0.00000
     10      11.5326      0.00000
     11      12.0570      0.00000
     12      14.8821      0.00000
     13      14.8822      0.00000
     14      15.1412      0.00000
     15      18.7890      0.00000
     16      24.4807      0.00000

 k-point    10 :       0.1333    0.0667    0.0000
  band No.  band energies     occupation 
      1      -6.5437      2.00000
      2       2.5079      2.00000
      3       3.5868      2.00000
      4       3.6779      2.00000
      5       6.1402      0.00000
      6       6.4243      0.00000
      7       7.1818      0.00000
      8       7.4388      0.00000
      9      11.0411      0.00000
     10      11.9810      0.00000
     11      11.9915      0.00000
     12      14.6065      0.00000
     13      15.3531      0.00000
     14      15.9330      0.00000
     15      19.5333      0.00000
     16      23.2232      0.00000

 k-point    11 :       0.2000    0.0667    0.0000
  band No.  band energies     occupation 
      1      -6.3356      2.00000
[...]
      5       5.5182      0.00000
      6       6.1832      0.00000
      7      11.5040      0.00000
      8      11.5654      0.00000
      9      13.2666      0.00000
     10      13.9582      0.00000
     11      15.5056      0.00000
     12      16.4073      0.00000
     13      17.7546      0.00000
     14      17.9112      0.00000
     15      20.3259      0.00000
     16      20.5244      0.00000

 k-point   101 :       0.4000    0.2667    0.1333
  band No.  band energies     occupation 
      1      -5.4652      2.00000
      2      -0.4291      2.00000
      3       1.6591      2.00000
      4       2.7010      2.00000
      5       6.5030      0.00000
      6       7.1802      0.00000
      7       8.3001      0.00000
      8       9.2965      0.00000
      9      11.4807      0.00000
     10      13.8042      0.00000
     11      14.0670      0.00000
     12      15.8558      0.00000
     13      17.0649      0.00000
     14      17.9827      0.00000
     15      18.9429      0.00000
     16      20.8549      0.00000

 k-point   102 :       0.4667    0.2667    0.1333
  band No.  band energies     occupation 
      1      -5.0820      2.00000
      2      -1.0826      2.00000
      3       1.3085      2.00000
      4       2.4824      2.00000
      5       6.7364      0.00000
      6       7.3564      0.00000
      7       8.3060      0.00000
      8       9.6567      0.00000
      9      11.9784      0.00000
     10      13.5071      0.00000
     11      14.8942      0.00000
     12      15.9219      0.00000
     13      17.1021      0.00000
     14      18.1867      0.00000
     15      19.2624      0.00000
     16      21.0000      0.00000

 k-point   103 :      -0.4667    0.2667    0.1333
  band No.  band energies     occupation 
      1      -4.6784      2.00000
      2      -1.7070      2.00000
      3       1.1086      2.00000
      4       2.2924      2.00000
      5       6.7560      0.00000
      6       7.4090      0.00000
      7       8.8631      0.00000
      8       9.8088      0.00000
      9      12.3740      0.00000
     10      12.8643      0.00000
     11      15.3857      0.00000
     12      15.9673      0.00000
     13      17.0720      0.00000
     14      18.4819      0.00000
     15      20.3419      0.00000
     16      20.6502      0.00000

 k-point   104 :      -0.4000    0.2667    0.1333
  band No.  band energies     occupation 
      1      -4.3701      2.00000
      2      -2.1354      2.00000
      3       1.0224      2.00000
      4       2.1869      2.00000
      5       6.7536      0.00000
      6       7.3556      0.00000
      7       9.5046      0.00000
      8      10.1482      0.00000
      9      11.2435      0.00000
     10      13.8969      0.00000
     11      14.9878      0.00000
     12      15.5794      0.00000
     13      17.6871      0.00000
     14      19.2105      0.00000
     15      20.0189      0.00000
     16      21.3909      0.00000

 k-point   105 :       0.4667    0.3333    0.1333
  band No.  band energies     occupation 
      1      -4.9254      2.00000
      2      -1.2168      2.00000
      3       1.3487      2.00000
      4       2.1005      2.00000
      5       6.2741      0.00000
      6       7.1195      0.00000
      7       8.5602      0.00000
      8      10.4303      0.00000
      9      12.5232      0.00000
     10      13.8204      0.00000
     11      14.9963      0.00000
     12      16.6808      0.00000
     13      16.9239      0.00000
     14      17.9119      0.00000
     15      18.9444      0.00000
     16      20.4686      0.00000

 k-point   106 :      -0.4667    0.3333    0.1333
  band No.  band energies     occupation 
      1      -4.5195      2.00000
      2      -1.7650      2.00000
      3       1.0364      2.00000
      4       1.9015      2.00000
      5       6.5627      0.00000
      6       7.5964      0.00000
      7       8.3342      0.00000
      8      10.7413      0.00000
      9      12.6174      0.00000
     10      13.1948      0.00000
     11      15.9065      0.00000
     12      16.2867      0.00000
     13      17.4703      0.00000
     14      17.8347      0.00000
     15      19.6472      0.00000
     16      20.7967      0.00000

 k-point   107 :      -0.4000    0.3333    0.1333
  band No.  band energies     occupation 
      1      -4.1529      2.00000
      2      -2.2188      2.00000
      3       0.8177      2.00000
      4       1.8080      2.00000
      5       6.6807      0.00000
      6       8.0506      0.00000
      7       8.6078      0.00000
      8      10.6464      0.00000
      9      11.5126      0.00000
     10      14.1654      0.00000
     11      15.0980      0.00000
     12      16.4738      0.00000
     13      17.9720      0.00000
     14      18.9622      0.00000
     15      20.1316      0.00000
     16      21.3889      0.00000

 k-point   108 :      -0.3333    0.3333    0.1333
  band No.  band energies     occupation 
      1      -4.0396      2.00000
      2      -2.3504      2.00000
      3       0.7009      2.00000
      4       1.8437      2.00000
      5       6.8154      0.00000
      6       7.9086      0.00000
      7       9.6802      0.00000
      8       9.8702      0.00000
      9      11.0742      0.00000
     10      13.8384      0.00000
     11      15.4107      0.00000
     12      16.4813      0.00000
     13      18.6297      0.00000
     14      19.4144      0.00000
     15      20.1126      0.00000
     16      20.5316      0.00000

 k-point   109 :      -0.2667    0.3333    0.1333
  band No.  band energies     occupation 
      1      -4.2936      2.00000
      2      -2.0474      2.00000
      3       0.7172      2.00000
      4       1.9934      2.00000
      5       6.9988      0.00000
      6       7.7648      0.00000
      7       8.8642      0.00000
      8      10.5716      0.00000
      9      11.2438      0.00000
     10      12.8290      0.00000
     11      16.4171      0.00000
     12      16.4922      0.00000
     13      18.1602      0.00000
     14      18.4127      0.00000
     15      19.6945      0.00000
     16      21.0568      0.00000

 k-point   110 :      -0.2000    0.3333    0.1333
  band No.  band energies     occupation 
      1      -4.6907      2.00000
      2      -1.5630      2.00000
      3       0.9082      2.00000
      4       2.2252      2.00000
      5       7.1810      0.00000
      6       7.4193      0.00000
      7       8.2843      0.00000
      8      10.3227      0.00000
      9      12.1734      0.00000
     10      12.3987      0.00000
     11      15.9951      0.00000
     12      16.9204      0.00000
     13      16.9352      0.00000
     14      18.2441      0.00000
     15      19.5245      0.00000
     16      20.8239      0.00000

 k-point   111 :      -0.4667    0.4000    0.1333
  band No.  band energies     occupation 
      1      -4.2901      2.00000
      2      -2.0136      2.00000
      3       1.1766      2.00000
      4       1.6194      2.00000
      5       6.1620      0.00000
      6       6.7029      0.00000
      7       9.3894      0.00000
      8      11.4576      0.00000
      9      13.0236      0.00000
     10      13.6330      0.00000
     11      15.6992      0.00000
     12      16.8615      0.00000
     13      16.9840      0.00000
     14      18.1670      0.00000
     15      19.3925      0.00000
     16      20.2642      0.00000

 k-point   112 :      -0.4000    0.4000    0.1333
  band No.  band energies     occupation 
      1      -3.8879      2.00000
      2      -2.4517      2.00000
      3       0.8921      2.00000
      4       1.4898      2.00000
      5       6.4365      0.00000
      6       7.3644      0.00000
      7       9.1642      0.00000
      8      11.0977      0.00000
      9      12.3609      0.00000
     10      14.2433      0.00000
     11      15.2160      0.00000
     12      16.9979      0.00000
     13      18.0693      0.00000
     14      18.5189      0.00000
     15      19.9533      0.00000
     16      20.8021      0.00000

 k-point   113 :      -0.3333    0.4000    0.1333
  band No.  band energies     occupation 
      1      -3.6795      2.00000
      2      -2.6643      2.00000
      3       0.6488      2.00000
      4       1.5439      2.00000
      5       6.5848      0.00000
      6       8.4303      0.00000
      7       8.9630      0.00000
      8       9.9863      0.00000
      9      12.1312      0.00000
     10      13.8151      0.00000
     11      15.5545      0.00000
     12      17.2133      0.00000
     13      18.3261      0.00000
     14      19.4004      0.00000
     15      20.1246      0.00000
     16      20.9285      0.00000

 k-point   114 :      -0.2667    0.4000    0.1333
  band No.  band energies     occupation 
      1      -3.9036      2.00000
      2      -2.4285      2.00000
      3       0.5687      2.00000
      4       1.7281      2.00000
      5       6.7809      0.00000
      6       8.6372      0.00000
      7       9.0485      0.00000
      8       9.6443      0.00000
      9      11.7089      0.00000
     10      13.0798      0.00000
     11      16.2922      0.00000
     12      17.5183      0.00000
     13      17.8600      0.00000
     14      19.0728      0.00000
     15      19.9050      0.00000
     16      21.2634      0.00000

 k-point   115 :      -0.4000    0.4667    0.1333
  band No.  band energies     occupation 
      1      -3.5755      2.00000
      2      -2.8076      2.00000
      3       1.1579      2.00000
      4       1.3021      2.00000
      5       6.1918      0.00000
      6       6.3714      0.00000
      7      10.3782      0.00000
      8      11.3348      0.00000
      9      13.2363      0.00000
     10      14.1191      0.00000
     11      15.4066      0.00000
     12      16.2806      0.00000
     13      17.9584      0.00000
     14      19.2151      0.00000
     15      19.5723      0.00000
     16      20.5507      0.00000

 k-point   116 :      -0.3333    0.4667    0.1333
  band No.  band energies     occupation 
      1      -3.3442      2.00000
      2      -3.0140      2.00000
      3       0.8531      2.00000
      4       1.3375      2.00000
      5       6.3952      0.00000
      6       7.2652      0.00000
      7      10.1023      0.00000
      8      10.2136      0.00000
      9      13.0883      0.00000
     10      13.8673      0.00000
     11      15.5423      0.00000
     12      16.4922      0.00000
     13      18.9657      0.00000
     14      19.5806      0.00000
     15      19.9755      0.00000
     16      19.9932      0.00000

 k-point   117 :      -0.4000    0.4000    0.2000
  band No.  band energies     occupation 
      1      -4.1137      2.00000
      2      -2.1925      2.00000
      3       0.7990      2.00000
      4       1.6120      2.00000
      5       7.3217      0.00000
      6       7.7083      0.00000
      7       8.0983      0.00000
      8      10.9260      0.00000
      9      11.9622      0.00000
     10      13.3975      0.00000
     11      16.0867      0.00000
     12      17.2149      0.00000
     13      17.5221      0.00000
     14      18.7045      0.00000
     15      19.2183      0.00000
     16      21.5780      0.00000

 k-point   118 :      -0.3333    0.4000    0.2000
  band No.  band energies     occupation 
      1      -3.7708      2.00000
      2      -2.5566      2.00000
      3       0.6906      2.00000
      4       1.4326      2.00000
      5       7.5765      0.00000
      6       7.8184      0.00000
      7       8.6252      0.00000
      8       9.7818      0.00000
      9      12.1409      0.00000
     10      14.0370      0.00000
     11      15.3804      0.00000
     12      17.0924      0.00000
     13      18.1629      0.00000
     14      19.4859      0.00000
     15      20.0505      0.00000
     16      21.1138      0.00000

 k-point   119 :      -0.3333    0.4667    0.2000
  band No.  band energies     occupation 
      1      -3.4870      2.00000
      2      -2.8390      2.00000
      3       0.8716      2.00000
      4       1.1431      2.00000
      5       7.3364      0.00000
      6       7.4883      0.00000
      7       8.9278      0.00000
      8       9.9411      0.00000
      9      13.0686      0.00000
     10      14.0378      0.00000
     11      15.4857      0.00000
     12      16.3944      0.00000
     13      18.8378      0.00000
     14      19.8292      0.00000
     15      19.9609      0.00000
     16      20.7542      0.00000

 k-point   120 :      -0.2667    0.4667    0.2000
  band No.  band energies     occupation 
      1      -3.4039      2.00000
      2      -2.9116      2.00000
      3       0.7566      2.00000
      4       1.1570      2.00000
      5       7.5651      0.00000
      6       8.5379      0.00000
      7       8.6606      0.00000
      8       8.7965      0.00000
      9      13.0379      0.00000
     10      13.9327      0.00000
     11      15.5330      0.00000
     12      16.4776      0.00000
     13      18.8950      0.00000
     14      19.7349      0.00000
     15      20.6440      0.00000
     16      20.8610      0.00000


--------------------------------------------------------------------------------------------------------


 soft charge-density along one line, spin component           1
         0         1         2         3         4         5         6         7         8         9
 total charge-density along one line
 
 pseudopotential strength for first ion, spin component:           1
 18.632   0.001  -0.000  -0.000  -0.000   0.000   0.000   0.000
  0.001   0.006   0.000   0.000   0.000  -0.000  -0.000  -0.000
 -0.000   0.000   4.201  -0.000  -0.000  -0.003   0.000   0.000
 -0.000   0.000  -0.000   4.201  -0.000   0.000  -0.003   0.000
 -0.000   0.000  -0.000  -0.000   4.201   0.000   0.000  -0.003
  0.000  -0.000  -0.003   0.000   0.000   0.005  -0.000  -0.000
  0.000  -0.000   0.000  -0.003   0.000  -0.000   0.005  -0.000
  0.000  -0.000   0.000   0.000  -0.003  -0.000  -0.000   0.005
 total augmentation occupancy for first ion, spin component:           1
  1.559  -0.365  -0.000  -0.000  -0.000  -0.000  -0.000   0.000
 -0.365   0.447  -0.000   0.000   0.000   0.000   0.000  -0.000
 -0.000  -0.000   0.872   0.000  -0.000  -0.877   0.000   0.000
 -0.000  -0.000   0.000   0.872   0.000   0.000  -0.877  -0.000
 -0.000   0.000   0.000   0.000   0.872   0.000  -0.000  -0.877
 -0.000  -0.000  -0.877   0.000  -0.000   0.929   0.000  -0.000
 -0.000   0.000  -0.000  -0.877  -0.000   0.000   0.929   0.000
  0.000  -0.000   0.000  -0.000  -0.877  -0.000   0.000   0.929


------------------------ aborting loop because EDIFF is reached ----------------------------------------


    CHARGE:  cpu time    0.0040: real time    0.0041
    FORLOC:  cpu time    0.0000: real time    0.0001
    FORNL :  cpu time    0.0050: real time    0.0047
    STRESS:  cpu time    0.0530: real time    0.0538
    FORCOR:  cpu time    0.0010: real time    0.0015
    FORHAR:  cpu time    0.0010: real time    0.0004
    MIXING:  cpu time    0.0000: real time    0.0002
    OFIELD:  cpu time    0.0000: real time    0.0000

  FORCE on cell =-STRESS in cart. coord.  units (eV):
  Direction    XX          YY          ZZ          XY          YZ          ZX
  --------------------------------------------------------------------------------------
  Alpha Z     2.76051     2.76051     2.76051
  Ewald     -71.32761   -71.32761   -71.32761    -0.00000    -0.00000    -0.00000
  Hartree     5.76429     5.76429     5.76429     0.00000     0.00000     0.00000
  E(xc)     -24.29815   -24.29815   -24.29815    -0.00022    -0.00022    -0.00022
  Local     -32.16878   -32.16878   -32.16878     0.00031     0.00031     0.00031
  n-local    76.16311    77.63917    72.13898     1.90767    -1.07417     0.37763
  augment   -11.65884   -11.65884   -11.65884    -0.00020    -0.00020    -0.00020
  Kinetic    54.38000    53.14795    49.28641     3.59339    -0.97613     1.02742
  Fock        0.00000     0.00000     0.00000     0.00000     0.00000     0.00000
  -------------------------------------------------------------------------------------
  Total      -3.34337    -3.34337    -3.34337     0.00000     0.00000     0.00000
  in kB    -109.81734  -109.81734  -109.81734     0.00000     0.00000     0.00000
  external pressure =     -109.82 kB  Pullay stress =        0.00 kB


 VOLUME and BASIS-vectors are now :
 -----------------------------------------------------------------------------
  energy-cutoff  :      120.00
  volume of cell :       48.78
      direct lattice vectors                 reciprocal lattice vectors
     0.000000000  2.900000000  2.900000000    -0.172413793  0.172413793  0.172413793
     2.900000000  0.000000000  2.900000000     0.172413793 -0.172413793  0.172413793
     2.900000000  2.900000000  0.000000000     0.172413793  0.172413793 -0.172413793

  length of vectors
     4.101219331  4.101219331  4.101219331     0.298629450  0.298629450  0.298629450


 FORCES acting on ions
    electron-ion (+dipol)            ewald-force                    non-local-force                 convergence-correction
 -----------------------------------------------------------------------------------------------
   0.228E-04 0.228E-04 0.229E-04   0.103E-13 0.934E-14 0.112E-13   -.149E-15 -.312E-16 0.000E+00   0.972E-08 0.972E-08 0.972E-08
   -.228E-04 -.228E-04 -.229E-04   -.104E-13 -.931E-14 -.113E-13   0.347E-16 0.347E-17 0.000E+00   -.972E-08 -.972E-08 -.972E-08
 -----------------------------------------------------------------------------------------------
   -.254E-13 0.364E-13 0.163E-13   -.132E-15 0.271E-16 -.909E-16   -.114E-15 -.278E-16 0.000E+00   -.370E-15 -.297E-16 -.690E-15
 
 
 POSITION                                       TOTAL-FORCE (eV/Angst)
 -----------------------------------------------------------------------------------
      5.07500      5.07500      5.07500         0.000000      0.000000      0.000000
      0.72500      0.72500      0.72500        -0.000000     -0.000000     -0.000000
 -----------------------------------------------------------------------------------
    total drift:                               -0.000000      0.000000      0.000000


--------------------------------------------------------------------------------------------------------



  FREE ENERGIE OF THE ION-ELECTRON SYSTEM (eV)
  ---------------------------------------------------
  free  energy   TOTEN  =       -10.46060519 eV

  energy  without entropy=      -10.46060519  energy(sigma->0) =      -10.46060519
 


--------------------------------------------------------------------------------------------------------


    POTLOK:  cpu time    0.0030: real time    0.0030


--------------------------------------------------------------------------------------------------------


 writing wavefunctions
     LOOP+:  cpu time    6.2021: real time    6.3295
    4ORBIT:  cpu time    0.0000: real time    0.0000

 total amount of memory used by VASP on root node    31753. kBytes
========================================================================

   base      :      30000. kBytes
   nonl-proj :       1233. kBytes
   fftplans  :         48. kBytes
   grid      :        129. kBytes
   one-center:          6. kBytes
   wavefun   :        337. kBytes
 
  
  
 General timing and accounting informations for this job:
 ========================================================
  
                  Total CPU time used (sec):        6.867
                            User time (sec):        6.588
                          System time (sec):        0.279
                         Elapsed time (sec):        7.491
  
                   Maximum memory used (kb):       70652.
                   Average memory used (kb):           0.
  
                          Minor page faults:        87968
                          Major page faults:            0
                 Voluntary context switches:         2822
