 vasp.5.4.1 24Jun15 (build May 02 2016 14:41:14) complex                        
  
 executed on           IFC91_ompi date 2022.05.07  11:10:41
 running on   16 total cores
 distrk:  each k-point on   16 cores,    1 groups
 distr:  one band on NCORES_PER_BAND=   1 cores,   16 groups


--------------------------------------------------------------------------------------------------------


 INCAR:
 POTCAR:   PAW_PBE Si 05Jan2001                   

 ----------------------------------------------------------------------------- 
|                                                                             |
|           W    W    AA    RRRRR   N    N  II  N    N   GGGG   !!!           |
|           W    W   A  A   R    R  NN   N  II  NN   N  G    G  !!!           |
|           W    W  A    A  R    R  N N  N  II  N N  N  G       !!!           |
|           W WW W  AAAAAA  RRRRR   N  N N  II  N  N N  G  GGG   !            |
|           WW  WW  A    A  R   R   N   NN  II  N   NN  G    G                |
|           W    W  A    A  R    R  N    N  II  N    N   GGGG   !!!           |
|                                                                             |
|      For optimal performance we recommend to set                            |
|        NCORE= 4 - approx SQRT( number of cores)                             |
|      NCORE specifies how many cores store one orbital (NPAR=cpu/NCORE).     |
|      This setting can  greatly improve the performance of VASP for DFT.     |
|      The default, NPAR=number of cores might be grossly inefficient         |
|      on modern multi-core architectures or massively parallel machines.     |
|      Do your own testing !!!!                                               |
|      Unfortunately you need to use the default for GW and RPA calculations. |
|      (for HF NCORE is supported but not extensively tested yet)             |
|                                                                             |
 ----------------------------------------------------------------------------- 

 POTCAR:   PAW_PBE Si 05Jan2001                   
   VRHFIN =Si: s2p2                                                             
   LEXCH  = PE                                                                  
   EATOM  =   103.0669 eV,    7.5752 Ry                                         
                                                                                
   TITEL  = PAW_PBE Si 05Jan2001                                                
   LULTRA =        F    use ultrasoft PP ?                                      
   IUNSCR =        1    unscreen: 0-lin 1-nonlin 2-no                           
   RPACOR =    1.500    partial core radius                                     
   POMASS =   28.085; ZVAL   =    4.000    mass and valenz                      
   RCORE  =    1.900    outmost cutoff radius                                   
   RWIGS  =    2.480; RWIGS  =    1.312    wigner-seitz radius (au A)           
   ENMAX  =  245.345; ENMIN  =  184.009 eV                                      
   ICORE  =        2    local potential                                         
   LCOR   =        T    correct aug charges                                     
   LPAW   =        T    paw PP                                                  
   EAUG   =  322.069                                                            
   DEXC   =    -.007                                                            
   RMAX   =    2.944    core radius for proj-oper                               
   RAUG   =    1.300    factor for augmentation sphere                          
   RDEP   =    1.993    radius for radial grids                                 
   QCUT   =   -4.246; QGAM   =    8.493    optimization parameters              
                                                                                
   Description                                                                  
     l     E      TYP  RCUT    TYP  RCUT                                        
     0   .000     23  1.900                                                     
     0   .000     23  1.900                                                     
     1   .000     23  1.900                                                     
     1   .000     23  1.900                                                     
     2   .000      7  1.900                                                     
  local pseudopotential read in
  partial core-charges read in
  atomic valenz-charges read in
  non local Contribution for L=           0  read in
    real space projection operators read in
  non local Contribution for L=           0  read in
    real space projection operators read in
  non local Contribution for L=           1  read in
    real space projection operators read in
  non local Contribution for L=           1  read in
    real space projection operators read in
    PAW grid and wavefunctions read in
 
   number of l-projection  operators is LMAX  =           4
   number of lm-projection operators is LMMAX =           8
 
 PAW_PBE Si 05Jan2001                   :
 energy of atom  1       EATOM= -103.0669
 kinetic energy error for atom=    0.0009 (will be added to EATOM!!)
 
 
 POSCAR: Real silicon structure                  
  positions in direct lattice
  No initial velocities read in
 exchange correlation table for  LEXCH =        8
   RHO(1)=    0.500       N(1)  =     2000
   RHO(2)=  100.500       N(2)  =     4000
 


--------------------------------------------------------------------------------------------------------


 ion  position               nearest neighbor table
   1  0.875  0.875  0.875-   2 2.51   2 2.51   2 2.51   2 2.51
   2  0.125  0.125  0.125-   1 2.51   1 2.51   1 2.51   1 2.51
 
  LATTYP: Found a face centered cubic cell.
 ALAT       =     5.8000000000
  
  Lattice vectors:
  
 A1 = (   0.0000000000,   2.9000000000,   2.9000000000)
 A2 = (   2.9000000000,   0.0000000000,   2.9000000000)
 A3 = (   2.9000000000,   2.9000000000,   0.0000000000)


Analysis of symmetry for initial positions (statically):
=====================================================================
 Subroutine PRICEL returns:
 Original cell was already a primitive cell.
 

 Routine SETGRP: Setting up the symmetry group for a 
 face centered cubic supercell.


 Subroutine GETGRP returns: Found 48 space group operations
 (whereof 12 operations were pure point group operations)
 out of a pool of 48 trial point group operations.


The static configuration has the point symmetry D_3d.
 The point group associated with its full space group is O_h .


Analysis of symmetry for dynamics (positions and initial velocities):
=====================================================================
 Subroutine PRICEL returns:
 Original cell was already a primitive cell.
 

 Routine SETGRP: Setting up the symmetry group for a 
 face centered cubic supercell.


 Subroutine GETGRP returns: Found 48 space group operations
 (whereof 12 operations were pure point group operations)
 out of a pool of 48 trial point group operations.


The dynamic configuration has the point symmetry D_3d.
 The point group associated with its full space group is O_h .
 
 
 KPOINTS: k-points                                

Automatic generation of k-mesh.
Space group operators:
 irot       det(A)        alpha          n_x          n_y          n_z        tau_x        tau_y        tau_z
    1     1.000000     0.000000     1.000000     0.000000     0.000000     0.000000     0.000000     0.000000
    2    -1.000000     0.000000     1.000000     0.000000     0.000000     0.000000     0.000000     0.000000
    3     1.000000   120.000000    -0.577350    -0.577350    -0.577350     0.000000     0.000000     0.000000
    4    -1.000000   120.000000    -0.577350    -0.577350    -0.577350     0.000000     0.000000     0.000000
    5     1.000000   120.000000     0.577350     0.577350     0.577350     0.000000     0.000000     0.000000
    6    -1.000000   120.000000     0.577350     0.577350     0.577350     0.000000     0.000000     0.000000
    7     1.000000   180.000000     0.000000    -0.707107     0.707107     0.000000     0.000000     0.000000
    8    -1.000000   180.000000     0.000000    -0.707107     0.707107     0.000000     0.000000     0.000000
    9     1.000000   180.000000     0.707107    -0.707107     0.000000     0.000000     0.000000     0.000000
   10    -1.000000   180.000000     0.707107    -0.707107     0.000000     0.000000     0.000000     0.000000
   11     1.000000   180.000000     0.707107     0.000000    -0.707107     0.000000     0.000000     0.000000
   12    -1.000000   180.000000     0.707107     0.000000    -0.707107     0.000000     0.000000     0.000000
   13     1.000000    90.000000     0.000000     0.000000    -1.000000     0.500000     0.000000     0.000000
   14    -1.000000    90.000000     0.000000     0.000000    -1.000000     0.500000     0.000000     0.000000
   15     1.000000   180.000000     0.000000     0.707107     0.707107     0.500000     0.000000     0.000000
   16    -1.000000   180.000000     0.000000     0.707107     0.707107     0.500000     0.000000     0.000000
   17     1.000000    90.000000     0.000000     1.000000     0.000000     0.500000     0.000000     0.000000
   18    -1.000000    90.000000     0.000000     1.000000     0.000000     0.500000     0.000000     0.000000
   19     1.000000   180.000000     0.000000     0.000000     1.000000     0.000000     0.000000     0.500000
   20    -1.000000   180.000000     0.000000     0.000000     1.000000     0.000000     0.000000     0.500000
   21     1.000000   120.000000    -0.577350     0.577350     0.577350     0.000000     0.000000     0.500000
   22    -1.000000   120.000000    -0.577350     0.577350     0.577350     0.000000     0.000000     0.500000
   23     1.000000   120.000000    -0.577350     0.577350    -0.577350     0.000000     0.000000     0.500000
   24    -1.000000   120.000000    -0.577350     0.577350    -0.577350     0.000000     0.000000     0.500000
   25     1.000000    90.000000     0.000000     0.000000     1.000000     0.000000     0.500000     0.000000
   26    -1.000000    90.000000     0.000000     0.000000     1.000000     0.000000     0.500000     0.000000
   27     1.000000    90.000000    -1.000000     0.000000     0.000000     0.000000     0.500000     0.000000
   28    -1.000000    90.000000    -1.000000     0.000000     0.000000     0.000000     0.500000     0.000000
   29     1.000000   180.000000     0.707107     0.000000     0.707107     0.000000     0.500000     0.000000
   30    -1.000000   180.000000     0.707107     0.000000     0.707107     0.000000     0.500000     0.000000
   31     1.000000   120.000000     0.577350    -0.577350     0.577350     0.500000     0.000000     0.000000
   32    -1.000000   120.000000     0.577350    -0.577350     0.577350     0.500000     0.000000     0.000000
   33     1.000000   120.000000    -0.577350    -0.577350     0.577350     0.500000     0.000000     0.000000
   34    -1.000000   120.000000    -0.577350    -0.577350     0.577350     0.500000     0.000000     0.000000
   35     1.000000   180.000000     1.000000     0.000000     0.000000     0.500000     0.000000     0.000000
   36    -1.000000   180.000000     1.000000     0.000000     0.000000     0.500000     0.000000     0.000000
   37     1.000000    90.000000     0.000000    -1.000000     0.000000     0.000000     0.000000     0.500000
   38    -1.000000    90.000000     0.000000    -1.000000     0.000000     0.000000     0.000000     0.500000
   39     1.000000   180.000000     0.707107     0.707107     0.000000     0.000000     0.000000     0.500000
   40    -1.000000   180.000000     0.707107     0.707107     0.000000     0.000000     0.000000     0.500000
   41     1.000000    90.000000     1.000000     0.000000     0.000000     0.000000     0.000000     0.500000
   42    -1.000000    90.000000     1.000000     0.000000     0.000000     0.000000     0.000000     0.500000
   43     1.000000   120.000000     0.577350    -0.577350    -0.577350     0.000000     0.500000     0.000000
   44    -1.000000   120.000000     0.577350    -0.577350    -0.577350     0.000000     0.500000     0.000000
   45     1.000000   180.000000     0.000000     1.000000     0.000000     0.000000     0.500000     0.000000
   46    -1.000000   180.000000     0.000000     1.000000     0.000000     0.000000     0.500000     0.000000
   47     1.000000   120.000000     0.577350     0.577350    -0.577350     0.000000     0.500000     0.000000
   48    -1.000000   120.000000     0.577350     0.577350    -0.577350     0.000000     0.500000     0.000000
 
 Subroutine IBZKPT returns following result:
 ===========================================
 
 Found    120 irreducible k-points:
 
 Following reciprocal coordinates:
            Coordinates               Weight
  0.000000  0.000000  0.000000      1.000000
  0.066667  0.000000  0.000000      8.000000
  0.133333  0.000000  0.000000      8.000000
  0.200000  0.000000  0.000000      8.000000
  0.266667  0.000000  0.000000      8.000000
  0.333333  0.000000  0.000000      8.000000
  0.400000  0.000000  0.000000      8.000000
  0.466667  0.000000  0.000000      8.000000
  0.066667  0.066667  0.000000      6.000000
  0.133333  0.066667  0.000000     24.000000
  0.200000  0.066667  0.000000     24.000000
  0.266667  0.066667  0.000000     24.000000
  0.333333  0.066667  0.000000     24.000000
  0.400000  0.066667  0.000000     24.000000
  0.466667  0.066667  0.000000     24.000000
 -0.466667  0.066667  0.000000     24.000000
 -0.400000  0.066667  0.000000     24.000000
 -0.333333  0.066667  0.000000     24.000000
 -0.266667  0.066667  0.000000     24.000000
 -0.200000  0.066667  0.000000     24.000000
 -0.133333  0.066667  0.000000     24.000000
 -0.066667  0.066667  0.000000     12.000000
  0.133333  0.133333  0.000000      6.000000
  0.200000  0.133333  0.000000     24.000000
  0.266667  0.133333  0.000000     24.000000
  0.333333  0.133333  0.000000     24.000000
  0.400000  0.133333  0.000000     24.000000
  0.466667  0.133333  0.000000     24.000000
 -0.466667  0.133333  0.000000     24.000000
 -0.400000  0.133333  0.000000     24.000000
 -0.333333  0.133333  0.000000     24.000000
 -0.266667  0.133333  0.000000     24.000000
 -0.200000  0.133333  0.000000     24.000000
 -0.133333  0.133333  0.000000     12.000000
  0.200000  0.200000  0.000000      6.000000
  0.266667  0.200000  0.000000     24.000000
  0.333333  0.200000  0.000000     24.000000
  0.400000  0.200000  0.000000     24.000000
  0.466667  0.200000  0.000000     24.000000
 -0.466667  0.200000  0.000000     24.000000
 -0.400000  0.200000  0.000000     24.000000
 -0.333333  0.200000  0.000000     24.000000
 -0.266667  0.200000  0.000000     24.000000
 -0.200000  0.200000  0.000000     12.000000
  0.266667  0.266667  0.000000      6.000000
  0.333333  0.266667  0.000000     24.000000
  0.400000  0.266667  0.000000     24.000000
  0.466667  0.266667  0.000000     24.000000
 -0.466667  0.266667  0.000000     24.000000
 -0.400000  0.266667  0.000000     24.000000
 -0.333333  0.266667  0.000000     24.000000
 -0.266667  0.266667  0.000000     12.000000
  0.333333  0.333333  0.000000      6.000000
  0.400000  0.333333  0.000000     24.000000
  0.466667  0.333333  0.000000     24.000000
 -0.466667  0.333333  0.000000     24.000000
 -0.400000  0.333333  0.000000     24.000000
 -0.333333  0.333333  0.000000     12.000000
  0.400000  0.400000  0.000000      6.000000
  0.466667  0.400000  0.000000     24.000000
 -0.466667  0.400000  0.000000     24.000000
 -0.400000  0.400000  0.000000     12.000000
  0.466667  0.466667  0.000000      6.000000
 -0.466667  0.466667  0.000000     12.000000
  0.200000  0.133333  0.066667     24.000000
  0.266667  0.133333  0.066667     48.000000
  0.333333  0.133333  0.066667     48.000000
  0.400000  0.133333  0.066667     48.000000
  0.466667  0.133333  0.066667     48.000000
 -0.466667  0.133333  0.066667     48.000000
  0.266667  0.200000  0.066667     24.000000
  0.333333  0.200000  0.066667     48.000000
  0.400000  0.200000  0.066667     48.000000
  0.466667  0.200000  0.066667     48.000000
 -0.466667  0.200000  0.066667     48.000000
 -0.400000  0.200000  0.066667     48.000000
 -0.333333  0.200000  0.066667     48.000000
 -0.266667  0.200000  0.066667     48.000000
 -0.200000  0.200000  0.066667     48.000000
 -0.133333  0.200000  0.066667     24.000000
  0.333333  0.266667  0.066667     24.000000
  0.400000  0.266667  0.066667     48.000000
  0.466667  0.266667  0.066667     48.000000
 -0.466667  0.266667  0.066667     48.000000
 -0.400000  0.266667  0.066667     48.000000
 -0.333333  0.266667  0.066667     48.000000
 -0.266667  0.266667  0.066667     48.000000
 -0.200000  0.266667  0.066667     24.000000
  0.400000  0.333333  0.066667     24.000000
  0.466667  0.333333  0.066667     48.000000
 -0.466667  0.333333  0.066667     48.000000
 -0.400000  0.333333  0.066667     48.000000
 -0.333333  0.333333  0.066667     48.000000
 -0.266667  0.333333  0.066667     24.000000
  0.466667  0.400000  0.066667     24.000000
 -0.466667  0.400000  0.066667     48.000000
 -0.400000  0.400000  0.066667     48.000000
 -0.333333  0.400000  0.066667     24.000000
 -0.466667  0.466667  0.066667     24.000000
 -0.400000  0.466667  0.066667     24.000000
  0.400000  0.266667  0.133333     24.000000
  0.466667  0.266667  0.133333     48.000000
 -0.466667  0.266667  0.133333     48.000000
 -0.400000  0.266667  0.133333     48.000000
  0.466667  0.333333  0.133333     24.000000
 -0.466667  0.333333  0.133333     48.000000
 -0.400000  0.333333  0.133333     48.000000
 -0.333333  0.333333  0.133333     48.000000
 -0.266667  0.333333  0.133333     48.000000
 -0.200000  0.333333  0.133333     24.000000
 -0.466667  0.400000  0.133333     24.000000
 -0.400000  0.400000  0.133333     48.000000
 -0.333333  0.400000  0.133333     48.000000
 -0.266667  0.400000  0.133333     24.000000
 -0.400000  0.466667  0.133333     24.000000
 -0.333333  0.466667  0.133333     24.000000
 -0.400000  0.400000  0.200000     24.000000
 -0.333333  0.400000  0.200000     48.000000
 -0.333333  0.466667  0.200000     24.000000
 -0.266667  0.466667  0.200000     24.000000
 
 Following cartesian coordinates:
            Coordinates               Weight
  0.000000  0.000000  0.000000      1.000000
 -0.066667  0.066667  0.066667      8.000000
 -0.133333  0.133333  0.133333      8.000000
 -0.200000  0.200000  0.200000      8.000000
 -0.266667  0.266667  0.266667      8.000000
 -0.333333  0.333333  0.333333      8.000000
 -0.400000  0.400000  0.400000      8.000000
 -0.466667  0.466667  0.466667      8.000000
  0.000000  0.000000  0.133333      6.000000
 -0.066667  0.066667  0.200000     24.000000
 -0.133333  0.133333  0.266667     24.000000
 -0.200000  0.200000  0.333333     24.000000
 -0.266667  0.266667  0.400000     24.000000
 -0.333333  0.333333  0.466667     24.000000
 -0.400000  0.400000  0.533333     24.000000
  0.533333 -0.533333 -0.400000     24.000000
  0.466667 -0.466667 -0.333333     24.000000
  0.400000 -0.400000 -0.266667     24.000000
  0.333333 -0.333333 -0.200000     24.000000
  0.266667 -0.266667 -0.133333     24.000000
  0.200000 -0.200000 -0.066667     24.000000
  0.133333 -0.133333  0.000000     12.000000
  0.000000  0.000000  0.266667      6.000000
 -0.066667  0.066667  0.333333     24.000000
 -0.133333  0.133333  0.400000     24.000000
 -0.200000  0.200000  0.466667     24.000000
 -0.266667  0.266667  0.533333     24.000000
 -0.333333  0.333333  0.600000     24.000000
  0.600000 -0.600000 -0.333333     24.000000
  0.533333 -0.533333 -0.266667     24.000000
  0.466667 -0.466667 -0.200000     24.000000
  0.400000 -0.400000 -0.133333     24.000000
  0.333333 -0.333333 -0.066667     24.000000
  0.266667 -0.266667  0.000000     12.000000
  0.000000  0.000000  0.400000      6.000000
 -0.066667  0.066667  0.466667     24.000000
 -0.133333  0.133333  0.533333     24.000000
 -0.200000  0.200000  0.600000     24.000000
 -0.266667  0.266667  0.666667     24.000000
  0.666667 -0.666667 -0.266667     24.000000
  0.600000 -0.600000 -0.200000     24.000000
  0.533333 -0.533333 -0.133333     24.000000
  0.466667 -0.466667 -0.066667     24.000000
  0.400000 -0.400000  0.000000     12.000000
  0.000000  0.000000  0.533333      6.000000
 -0.066667  0.066667  0.600000     24.000000
 -0.133333  0.133333  0.666667     24.000000
 -0.200000  0.200000  0.733333     24.000000
  0.733333 -0.733333 -0.200000     24.000000
  0.666667 -0.666667 -0.133333     24.000000
  0.600000 -0.600000 -0.066667     24.000000
  0.533333 -0.533333  0.000000     12.000000
  0.000000  0.000000  0.666667      6.000000
 -0.066667  0.066667  0.733333     24.000000
 -0.133333  0.133333  0.800000     24.000000
  0.800000 -0.800000 -0.133333     24.000000
  0.733333 -0.733333 -0.066667     24.000000
  0.666667 -0.666667  0.000000     12.000000
  0.000000  0.000000  0.800000      6.000000
 -0.066667  0.066667  0.866667     24.000000
  0.866667 -0.866667 -0.066667     24.000000
  0.800000 -0.800000  0.000000     12.000000
  0.000000  0.000000  0.933333      6.000000
  0.933333 -0.933333  0.000000     12.000000
  0.000000  0.133333  0.266667     24.000000
 -0.066667  0.200000  0.333333     48.000000
 -0.133333  0.266667  0.400000     48.000000
 -0.200000  0.333333  0.466667     48.000000
 -0.266667  0.400000  0.533333     48.000000
  0.666667 -0.533333 -0.400000     48.000000
  0.000000  0.133333  0.400000     24.000000
 -0.066667  0.200000  0.466667     48.000000
 -0.133333  0.266667  0.533333     48.000000
 -0.200000  0.333333  0.600000     48.000000
  0.733333 -0.600000 -0.333333     48.000000
  0.666667 -0.533333 -0.266667     48.000000
  0.600000 -0.466667 -0.200000     48.000000
  0.533333 -0.400000 -0.133333     48.000000
  0.466667 -0.333333 -0.066667     48.000000
  0.400000 -0.266667  0.000000     24.000000
  0.000000  0.133333  0.533333     24.000000
 -0.066667  0.200000  0.600000     48.000000
 -0.133333  0.266667  0.666667     48.000000
  0.800000 -0.666667 -0.266667     48.000000
  0.733333 -0.600000 -0.200000     48.000000
  0.666667 -0.533333 -0.133333     48.000000
  0.600000 -0.466667 -0.066667     48.000000
  0.533333 -0.400000 -0.000000     24.000000
 -0.000000  0.133333  0.666667     24.000000
 -0.066667  0.200000  0.733333     48.000000
  0.866667 -0.733333 -0.200000     48.000000
  0.800000 -0.666667 -0.133333     48.000000
  0.733333 -0.600000 -0.066667     48.000000
  0.666667 -0.533333 -0.000000     24.000000
  0.000000  0.133333  0.800000     24.000000
  0.933333 -0.800000 -0.133333     48.000000
  0.866667 -0.733333 -0.066667     48.000000
  0.800000 -0.666667  0.000000     24.000000
  1.000000 -0.866667 -0.066667     24.000000
  0.933333 -0.800000 -0.000000     24.000000
 -0.000000  0.266667  0.533333     24.000000
 -0.066667  0.333333  0.600000     48.000000
  0.866667 -0.600000 -0.333333     48.000000
  0.800000 -0.533333 -0.266667     48.000000
 -0.000000  0.266667  0.666667     24.000000
  0.933333 -0.666667 -0.266667     48.000000
  0.866667 -0.600000 -0.200000     48.000000
  0.800000 -0.533333 -0.133333     48.000000
  0.733333 -0.466667 -0.066667     48.000000
  0.666667 -0.400000 -0.000000     24.000000
  1.000000 -0.733333 -0.200000     24.000000
  0.933333 -0.666667 -0.133333     48.000000
  0.866667 -0.600000 -0.066667     48.000000
  0.800000 -0.533333  0.000000     24.000000
  1.000000 -0.733333 -0.066667     24.000000
  0.933333 -0.666667  0.000000     24.000000
  1.000000 -0.600000 -0.200000     24.000000
  0.933333 -0.533333 -0.133333     48.000000
  1.000000 -0.600000 -0.066667     24.000000
  0.933333 -0.533333  0.000000     24.000000
 


--------------------------------------------------------------------------------------------------------




 Dimension of arrays:
   k-points           NKPTS =    120   k-points in BZ     NKDIM =    120   number of bands    NBANDS=     16
   number of dos      NEDOS =    301   number of ions     NIONS =      2
   non local maximal  LDIM  =      4   non local SUM 2l+1 LMDIM =      8
   total plane-waves  NPLWV =  13824
   max r-space proj   IRMAX =      1   max aug-charges    IRDMAX=   9674
   dimension x,y,z NGX =    24 NGY =   24 NGZ =   24
   dimension x,y,z NGXF=    48 NGYF=   48 NGZF=   48
   support grid    NGXF=    48 NGYF=   48 NGZF=   48
   ions per type =               2
 NGX,Y,Z   is equivalent  to a cutoff of   9.73,  9.73,  9.73 a.u.
 NGXF,Y,Z  is equivalent  to a cutoff of  19.46, 19.46, 19.46 a.u.


 I would recommend the setting:
   dimension x,y,z NGX =    21 NGY =   21 NGZ =   21
 SYSTEM =  Silicon                                 
 POSCAR =  Real silicon structure                  

 Startparameter for this run:
   NWRITE =      2    write-flag & timer
   PREC   = normal    normal or accurate (medium, high low for compatibility)
   ISTART =      0    job   : 0-new  1-cont  2-samecut
   ICHARG =      2    charge: 1-file 2-atom 10-const
   ISPIN  =      1    spin polarized calculation?
   LNONCOLLINEAR =      F non collinear calculations
   LSORBIT =      F    spin-orbit coupling
   INIWAV =      1    electr: 0-lowe 1-rand  2-diag
   LASPH  =      F    aspherical Exc in radial PAW
   METAGGA=      F    non-selfconsistent MetaGGA calc.

 Electronic Relaxation 1
   ENCUT  =  450.0 eV  33.07 Ry    5.75 a.u.   7.09  7.09  7.09*2*pi/ulx,y,z
   ENINI  =  450.0     initial cutoff
   ENAUG  =  322.1 eV  augmentation charge cutoff
   NELM   =    100;   NELMIN=  4; NELMDL= -5     # of ELM steps 
   EDIFF  = 0.1E-05   stopping-criterion for ELM
   LREAL  =      F    real-space projection
   NLSPLINE    = F    spline interpolate recip. space projectors
   LCOMPAT=      F    compatible to vasp.4.4
   GGA_COMPAT  = T    GGA compatible to vasp.4.4-vasp.4.6
   LMAXPAW     = -100 max onsite density
   LMAXMIX     =    2 max onsite mixed and CHGCAR
   VOSKOWN=      0    Vosko Wilk Nusair interpolation
   ROPT   =    0.00000
 Ionic relaxation
   EDIFFG = 0.1E-04   stopping-criterion for IOM
   NSW    =      0    number of steps for IOM
   NBLOCK =      1;   KBLOCK =      1    inner block; outer block 
   IBRION =     -1    ionic relax: 0-MD 1-quasi-New 2-CG
   NFREE  =      0    steps in history (QN), initial steepest desc. (CG)
   ISIF   =      2    stress and relaxation
   IWAVPR =     10    prediction:  0-non 1-charg 2-wave 3-comb
   ISYM   =      2    0-nonsym 1-usesym 2-fastsym
   LCORR  =      T    Harris-Foulkes like correction to forces

   POTIM  = 0.5000    time-step for ionic-motion
   TEIN   =    0.0    initial temperature
   TEBEG  =    0.0;   TEEND  =   0.0 temperature during run
   SMASS  =  -3.00    Nose mass-parameter (am)
   estimated Nose-frequenzy (Omega)   =  0.10E-29 period in steps =****** mass=  -0.384E-27a.u.
   SCALEE = 1.0000    scale energy and forces
   NPACO  =    256;   APACO  = 16.0  distance and # of slots for P.C.
   PSTRESS=    0.0 pullay stress

  Mass of Ions in am
   POMASS =  28.09
  Ionic Valenz
   ZVAL   =   4.00
  Atomic Wigner-Seitz radii
   RWIGS  =  -1.00
  virtual crystal weights 
   VCA    =   1.00
   NELECT =       8.0000    total number of electrons
   NUPDOWN=      -1.0000    fix difference up-down

 DOS related values:
   EMIN   =  10.00;   EMAX   =-10.00  energy-range for DOS
   EFERMI =   0.00
   ISMEAR =     0;   SIGMA  =   0.10  broadening in eV -4-tet -1-fermi 0-gaus

 Electronic relaxation 2 (details)
   IALGO  =     38    algorithm
   LDIAG  =      T    sub-space diagonalisation (order eigenvalues)
   LSUBROT=      F    optimize rotation matrix (better conditioning)
   TURBO    =      0    0=normal 1=particle mesh
   IRESTART =      0    0=no restart 2=restart with 2 vectors
   NREBOOT  =      0    no. of reboots
   NMIN     =      0    reboot dimension
   EREF     =   0.00    reference energy to select bands
   IMIX   =      4    mixing-type and parameters
     AMIX     =   0.40;   BMIX     =  1.00
     AMIX_MAG =   1.60;   BMIX_MAG =  1.00
     AMIN     =   0.10
     WC   =   100.;   INIMIX=   1;  MIXPRE=   1;  MAXMIX= -45

 Intra band minimization:
   WEIMIN = 0.0000     energy-eigenvalue tresh-hold
   EBREAK =  0.16E-07  absolut break condition
   DEPER  =   0.30     relativ break condition  

   TIME   =   0.40     timestep for ELM

  volume/ion in A,a.u.               =      24.39       164.59
  Fermi-wavevector in a.u.,A,eV,Ry     =   0.896114  1.693411 10.925766  0.803021
  Thomas-Fermi vector in A             =   2.018532
 
 Write flags
   LWAVE  =      T    write WAVECAR
   LCHARG =      T    write CHGCAR
   LVTOT  =      F    write LOCPOT, total local potential
   LVHAR  =      F    write LOCPOT, Hartree potential only
   LELF   =      F    write electronic localiz. function (ELF)
   LORBIT =      0    0 simple, 1 ext, 2 COOP (PROOUT)


 Dipole corrections
   LMONO  =      F    monopole corrections only (constant potential shift)
   LDIPOL =      F    correct potential (dipole corrections)
   IDIPOL =      0    1-x, 2-y, 3-z, 4-all directions 
   EPSILON=  1.0000000 bulk dielectric constant

 Exchange correlation treatment:
   GGA     =    --    GGA type
   LEXCH   =     8    internal setting for exchange type
   VOSKOWN=      0    Vosko Wilk Nusair interpolation
   LHFCALC =     F    Hartree Fock is set to
   LHFONE  =     F    Hartree Fock one center treatment
   AEXX    =    0.0000 exact exchange contribution

 Linear response parameters
   LEPSILON=     F    determine dielectric tensor
   LRPA    =     F    only Hartree local field effects (RPA)
   LNABLA  =     F    use nabla operator in PAW spheres
   LVEL    =     F    velocity operator in full k-point grid
   LINTERFAST=   F  fast interpolation
   KINTER  =     0    interpolate to denser k-point grid
   CSHIFT  =0.1000    complex shift for real part using Kramers Kronig
   OMEGAMAX=  -1.0    maximum frequency
   DEG_THRESHOLD= 0.2000000E-02 threshold for treating states as degnerate
   RTIME   =    0.100 relaxation time in fs

 Orbital magnetization related:
   ORBITALMAG=     F  switch on orbital magnetization
   LCHIMAG   =     F  perturbation theory with respect to B field
   DQ        =  0.001000  dq finite difference perturbation B field



--------------------------------------------------------------------------------------------------------


 Static calculation
 charge density and potential will be updated during run
 non-spin polarized calculation
 Variant of blocked Davidson
 Davidson routine will perform the subspace rotation
 perform sub-space diagonalisation
    after iterative eigenvector-optimisation
 modified Broyden-mixing scheme, WC =      100.0
 initial mixing is a Kerker type mixing with AMIX =  0.4000 and BMIX =      1.0000
 Hartree-type preconditioning will be used
 using additional bands           12
 reciprocal scheme for non local part
 use partial core corrections
 calculate Harris-corrections to forces 
   (improved forces if not selfconsistent)
 use gradient corrections 
 use of overlap-Matrix (Vanderbilt PP)
 Gauss-broadening in eV      SIGMA  =   0.10


--------------------------------------------------------------------------------------------------------


  energy-cutoff  :      450.00
  volume of cell :       48.78
      direct lattice vectors                 reciprocal lattice vectors
     0.000000000  2.900000000  2.900000000    -0.172413793  0.172413793  0.172413793
     2.900000000  0.000000000  2.900000000     0.172413793 -0.172413793  0.172413793
     2.900000000  2.900000000  0.000000000     0.172413793  0.172413793 -0.172413793

  length of vectors
     4.101219331  4.101219331  4.101219331     0.298629450  0.298629450  0.298629450


 
 k-points in units of 2pi/SCALE and weight: k-points                                
   0.00000000  0.00000000  0.00000000       0.000
  -0.06666667  0.06666667  0.06666667       0.002
  -0.13333333  0.13333333  0.13333333       0.002
  -0.20000000  0.20000000  0.20000000       0.002
  -0.26666667  0.26666667  0.26666667       0.002
  -0.33333333  0.33333333  0.33333333       0.002
  -0.40000000  0.40000000  0.40000000       0.002
  -0.46666667  0.46666667  0.46666667       0.002
   0.00000000  0.00000000  0.13333333       0.002
  -0.06666667  0.06666667  0.20000000       0.007
  -0.13333333  0.13333333  0.26666667       0.007
  -0.20000000  0.20000000  0.33333333       0.007
  -0.26666667  0.26666667  0.40000000       0.007
  -0.33333333  0.33333333  0.46666667       0.007
  -0.40000000  0.40000000  0.53333333       0.007
   0.53333333 -0.53333333 -0.40000000       0.007
   0.46666667 -0.46666667 -0.33333333       0.007
   0.40000000 -0.40000000 -0.26666667       0.007
   0.33333333 -0.33333333 -0.20000000       0.007
   0.26666667 -0.26666667 -0.13333333       0.007
   0.20000000 -0.20000000 -0.06666667       0.007
   0.13333333 -0.13333333  0.00000000       0.004
   0.00000000  0.00000000  0.26666667       0.002
  -0.06666667  0.06666667  0.33333333       0.007
  -0.13333333  0.13333333  0.40000000       0.007
  -0.20000000  0.20000000  0.46666667       0.007
  -0.26666667  0.26666667  0.53333333       0.007
  -0.33333333  0.33333333  0.60000000       0.007
   0.60000000 -0.60000000 -0.33333333       0.007
   0.53333333 -0.53333333 -0.26666667       0.007
   0.46666667 -0.46666667 -0.20000000       0.007
   0.40000000 -0.40000000 -0.13333333       0.007
   0.33333333 -0.33333333 -0.06666667       0.007
   0.26666667 -0.26666667  0.00000000       0.004
   0.00000000  0.00000000  0.40000000       0.002
  -0.06666667  0.06666667  0.46666667       0.007
  -0.13333333  0.13333333  0.53333333       0.007
  -0.20000000  0.20000000  0.60000000       0.007
  -0.26666667  0.26666667  0.66666667       0.007
   0.66666667 -0.66666667 -0.26666667       0.007
   0.60000000 -0.60000000 -0.20000000       0.007
   0.53333333 -0.53333333 -0.13333333       0.007
   0.46666667 -0.46666667 -0.06666667       0.007
   0.40000000 -0.40000000  0.00000000       0.004
   0.00000000  0.00000000  0.53333333       0.002
  -0.06666667  0.06666667  0.60000000       0.007
  -0.13333333  0.13333333  0.66666667       0.007
  -0.20000000  0.20000000  0.73333333       0.007
   0.73333333 -0.73333333 -0.20000000       0.007
   0.66666667 -0.66666667 -0.13333333       0.007
   0.60000000 -0.60000000 -0.06666667       0.007
   0.53333333 -0.53333333  0.00000000       0.004
   0.00000000  0.00000000  0.66666667       0.002
  -0.06666667  0.06666667  0.73333333       0.007
  -0.13333333  0.13333333  0.80000000       0.007
   0.80000000 -0.80000000 -0.13333333       0.007
   0.73333333 -0.73333333 -0.06666667       0.007
   0.66666667 -0.66666667  0.00000000       0.004
   0.00000000  0.00000000  0.80000000       0.002
  -0.06666667  0.06666667  0.86666667       0.007
   0.86666667 -0.86666667 -0.06666667       0.007
   0.80000000 -0.80000000  0.00000000       0.004
   0.00000000  0.00000000  0.93333333       0.002
   0.93333333 -0.93333333  0.00000000       0.004
   0.00000000  0.13333333  0.26666667       0.007
  -0.06666667  0.20000000  0.33333333       0.014
  -0.13333333  0.26666667  0.40000000       0.014
  -0.20000000  0.33333333  0.46666667       0.014
  -0.26666667  0.40000000  0.53333333       0.014
   0.66666667 -0.53333333 -0.40000000       0.014
   0.00000000  0.13333333  0.40000000       0.007
  -0.06666667  0.20000000  0.46666667       0.014
  -0.13333333  0.26666667  0.53333333       0.014
  -0.20000000  0.33333333  0.60000000       0.014
   0.73333333 -0.60000000 -0.33333333       0.014
   0.66666667 -0.53333333 -0.26666667       0.014
   0.60000000 -0.46666667 -0.20000000       0.014
   0.53333333 -0.40000000 -0.13333333       0.014
   0.46666667 -0.33333333 -0.06666667       0.014
   0.40000000 -0.26666667  0.00000000       0.007
   0.00000000  0.13333333  0.53333333       0.007
  -0.06666667  0.20000000  0.60000000       0.014
  -0.13333333  0.26666667  0.66666667       0.014
   0.80000000 -0.66666667 -0.26666667       0.014
   0.73333333 -0.60000000 -0.20000000       0.014
   0.66666667 -0.53333333 -0.13333333       0.014
   0.60000000 -0.46666667 -0.06666667       0.014
   0.53333333 -0.40000000 -0.00000000       0.007
  -0.00000000  0.13333333  0.66666667       0.007
  -0.06666667  0.20000000  0.73333333       0.014
   0.86666667 -0.73333333 -0.20000000       0.014
   0.80000000 -0.66666667 -0.13333333       0.014
   0.73333333 -0.60000000 -0.06666667       0.014
   0.66666667 -0.53333333 -0.00000000       0.007
   0.00000000  0.13333333  0.80000000       0.007
   0.93333333 -0.80000000 -0.13333333       0.014
   0.86666667 -0.73333333 -0.06666667       0.014
   0.80000000 -0.66666667  0.00000000       0.007
   1.00000000 -0.86666667 -0.06666667       0.007
   0.93333333 -0.80000000 -0.00000000       0.007
  -0.00000000  0.26666667  0.53333333       0.007
  -0.06666667  0.33333333  0.60000000       0.014
   0.86666667 -0.60000000 -0.33333333       0.014
   0.80000000 -0.53333333 -0.26666667       0.014
  -0.00000000  0.26666667  0.66666667       0.007
   0.93333333 -0.66666667 -0.26666667       0.014
   0.86666667 -0.60000000 -0.20000000       0.014
   0.80000000 -0.53333333 -0.13333333       0.014
   0.73333333 -0.46666667 -0.06666667       0.014
   0.66666667 -0.40000000 -0.00000000       0.007
   1.00000000 -0.73333333 -0.20000000       0.007
   0.93333333 -0.66666667 -0.13333333       0.014
   0.86666667 -0.60000000 -0.06666667       0.014
   0.80000000 -0.53333333  0.00000000       0.007
   1.00000000 -0.73333333 -0.06666667       0.007
   0.93333333 -0.66666667  0.00000000       0.007
   1.00000000 -0.60000000 -0.20000000       0.007
   0.93333333 -0.53333333 -0.13333333       0.014
   1.00000000 -0.60000000 -0.06666667       0.007
   0.93333333 -0.53333333  0.00000000       0.007
 
 k-points in reciprocal lattice and weights: k-points                                
   0.00000000  0.00000000  0.00000000       0.000
   0.06666667  0.00000000  0.00000000       0.002
   0.13333333  0.00000000  0.00000000       0.002
   0.20000000  0.00000000  0.00000000       0.002
   0.26666667  0.00000000  0.00000000       0.002
   0.33333333  0.00000000  0.00000000       0.002
   0.40000000  0.00000000  0.00000000       0.002
   0.46666667  0.00000000  0.00000000       0.002
   0.06666667  0.06666667  0.00000000       0.002
   0.13333333  0.06666667  0.00000000       0.007
   0.20000000  0.06666667  0.00000000       0.007
   0.26666667  0.06666667  0.00000000       0.007
   0.33333333  0.06666667  0.00000000       0.007
   0.40000000  0.06666667  0.00000000       0.007
   0.46666667  0.06666667  0.00000000       0.007
  -0.46666667  0.06666667  0.00000000       0.007
  -0.40000000  0.06666667  0.00000000       0.007
  -0.33333333  0.06666667  0.00000000       0.007
  -0.26666667  0.06666667  0.00000000       0.007
  -0.20000000  0.06666667  0.00000000       0.007
  -0.13333333  0.06666667  0.00000000       0.007
  -0.06666667  0.06666667  0.00000000       0.004
   0.13333333  0.13333333  0.00000000       0.002
   0.20000000  0.13333333  0.00000000       0.007
   0.26666667  0.13333333  0.00000000       0.007
   0.33333333  0.13333333  0.00000000       0.007
   0.40000000  0.13333333  0.00000000       0.007
   0.46666667  0.13333333  0.00000000       0.007
  -0.46666667  0.13333333  0.00000000       0.007
  -0.40000000  0.13333333  0.00000000       0.007
  -0.33333333  0.13333333  0.00000000       0.007
  -0.26666667  0.13333333  0.00000000       0.007
  -0.20000000  0.13333333  0.00000000       0.007
  -0.13333333  0.13333333  0.00000000       0.004
   0.20000000  0.20000000  0.00000000       0.002
   0.26666667  0.20000000  0.00000000       0.007
   0.33333333  0.20000000  0.00000000       0.007
   0.40000000  0.20000000  0.00000000       0.007
   0.46666667  0.20000000  0.00000000       0.007
  -0.46666667  0.20000000  0.00000000       0.007
  -0.40000000  0.20000000  0.00000000       0.007
  -0.33333333  0.20000000  0.00000000       0.007
  -0.26666667  0.20000000  0.00000000       0.007
  -0.20000000  0.20000000  0.00000000       0.004
   0.26666667  0.26666667  0.00000000       0.002
   0.33333333  0.26666667  0.00000000       0.007
   0.40000000  0.26666667  0.00000000       0.007
   0.46666667  0.26666667  0.00000000       0.007
  -0.46666667  0.26666667  0.00000000       0.007
  -0.40000000  0.26666667  0.00000000       0.007
  -0.33333333  0.26666667  0.00000000       0.007
  -0.26666667  0.26666667  0.00000000       0.004
   0.33333333  0.33333333  0.00000000       0.002
   0.40000000  0.33333333  0.00000000       0.007
   0.46666667  0.33333333  0.00000000       0.007
  -0.46666667  0.33333333  0.00000000       0.007
  -0.40000000  0.33333333  0.00000000       0.007
  -0.33333333  0.33333333  0.00000000       0.004
   0.40000000  0.40000000  0.00000000       0.002
   0.46666667  0.40000000  0.00000000       0.007
  -0.46666667  0.40000000  0.00000000       0.007
  -0.40000000  0.40000000  0.00000000       0.004
   0.46666667  0.46666667  0.00000000       0.002
  -0.46666667  0.46666667  0.00000000       0.004
   0.20000000  0.13333333  0.06666667       0.007
   0.26666667  0.13333333  0.06666667       0.014
   0.33333333  0.13333333  0.06666667       0.014
   0.40000000  0.13333333  0.06666667       0.014
   0.46666667  0.13333333  0.06666667       0.014
  -0.46666667  0.13333333  0.06666667       0.014
   0.26666667  0.20000000  0.06666667       0.007
   0.33333333  0.20000000  0.06666667       0.014
   0.40000000  0.20000000  0.06666667       0.014
   0.46666667  0.20000000  0.06666667       0.014
  -0.46666667  0.20000000  0.06666667       0.014
  -0.40000000  0.20000000  0.06666667       0.014
  -0.33333333  0.20000000  0.06666667       0.014
  -0.26666667  0.20000000  0.06666667       0.014
  -0.20000000  0.20000000  0.06666667       0.014
  -0.13333333  0.20000000  0.06666667       0.007
   0.33333333  0.26666667  0.06666667       0.007
   0.40000000  0.26666667  0.06666667       0.014
   0.46666667  0.26666667  0.06666667       0.014
  -0.46666667  0.26666667  0.06666667       0.014
  -0.40000000  0.26666667  0.06666667       0.014
  -0.33333333  0.26666667  0.06666667       0.014
  -0.26666667  0.26666667  0.06666667       0.014
  -0.20000000  0.26666667  0.06666667       0.007
   0.40000000  0.33333333  0.06666667       0.007
   0.46666667  0.33333333  0.06666667       0.014
  -0.46666667  0.33333333  0.06666667       0.014
  -0.40000000  0.33333333  0.06666667       0.014
  -0.33333333  0.33333333  0.06666667       0.014
  -0.26666667  0.33333333  0.06666667       0.007
   0.46666667  0.40000000  0.06666667       0.007
  -0.46666667  0.40000000  0.06666667       0.014
  -0.40000000  0.40000000  0.06666667       0.014
  -0.33333333  0.40000000  0.06666667       0.007
  -0.46666667  0.46666667  0.06666667       0.007
  -0.40000000  0.46666667  0.06666667       0.007
   0.40000000  0.26666667  0.13333333       0.007
   0.46666667  0.26666667  0.13333333       0.014
  -0.46666667  0.26666667  0.13333333       0.014
  -0.40000000  0.26666667  0.13333333       0.014
   0.46666667  0.33333333  0.13333333       0.007
  -0.46666667  0.33333333  0.13333333       0.014
  -0.40000000  0.33333333  0.13333333       0.014
  -0.33333333  0.33333333  0.13333333       0.014
  -0.26666667  0.33333333  0.13333333       0.014
  -0.20000000  0.33333333  0.13333333       0.007
  -0.46666667  0.40000000  0.13333333       0.007
  -0.40000000  0.40000000  0.13333333       0.014
  -0.33333333  0.40000000  0.13333333       0.014
  -0.26666667  0.40000000  0.13333333       0.007
  -0.40000000  0.46666667  0.13333333       0.007
  -0.33333333  0.46666667  0.13333333       0.007
  -0.40000000  0.40000000  0.20000000       0.007
  -0.33333333  0.40000000  0.20000000       0.014
  -0.33333333  0.46666667  0.20000000       0.007
  -0.26666667  0.46666667  0.20000000       0.007
 
 position of ions in fractional coordinates (direct lattice) 
   0.87500000  0.87500000  0.87500000
   0.12500000  0.12500000  0.12500000
 
 position of ions in cartesian coordinates  (Angst):
   5.07500000  5.07500000  5.07500000
   0.72500000  0.72500000  0.72500000
 


--------------------------------------------------------------------------------------------------------


 k-point  1 :   0.0000 0.0000 0.0000  plane waves:    1067
 k-point  2 :   0.0667 0.0000 0.0000  plane waves:    1046
 k-point  3 :   0.1333 0.0000 0.0000  plane waves:    1040
 k-point  4 :   0.2000 0.0000 0.0000  plane waves:    1046
 k-point  5 :   0.2667 0.0000 0.0000  plane waves:    1059
 k-point  6 :   0.3333 0.0000 0.0000  plane waves:    1059
 k-point  7 :   0.4000 0.0000 0.0000  plane waves:    1056
 k-point  8 :   0.4667 0.0000 0.0000  plane waves:    1062
 k-point  9 :   0.0667 0.0667 0.0000  plane waves:    1042
 k-point 10 :   0.1333 0.0667 0.0000  plane waves:    1038
 k-point 11 :   0.2000 0.0667 0.0000  plane waves:    1038
 k-point 12 :   0.2667 0.0667 0.0000  plane waves:    1049
 k-point 13 :   0.3333 0.0667 0.0000  plane waves:    1065
 k-point 14 :   0.4000 0.0667 0.0000  plane waves:    1055
 k-point 15 :   0.4667 0.0667 0.0000  plane waves:    1055
 k-point 16 :  -0.4667 0.0667 0.0000  plane waves:    1059
 k-point 17 :  -0.4000 0.0667 0.0000  plane waves:    1053
 k-point 18 :  -0.3333 0.0667 0.0000  plane waves:    1058
 k-point 19 :  -0.2667 0.0667 0.0000  plane waves:    1059
 k-point 20 :  -0.2000 0.0667 0.0000  plane waves:    1053
 k-point 21 :  -0.1333 0.0667 0.0000  plane waves:    1041
 k-point 22 :  -0.0667 0.0667 0.0000  plane waves:    1043
 k-point 23 :   0.1333 0.1333 0.0000  plane waves:    1038
 k-point 24 :   0.2000 0.1333 0.0000  plane waves:    1042
 k-point 25 :   0.2667 0.1333 0.0000  plane waves:    1053
 k-point 26 :   0.3333 0.1333 0.0000  plane waves:    1057
 k-point 27 :   0.4000 0.1333 0.0000  plane waves:    1060
 k-point 28 :   0.4667 0.1333 0.0000  plane waves:    1055
 k-point 29 :  -0.4667 0.1333 0.0000  plane waves:    1068
 k-point 30 :  -0.4000 0.1333 0.0000  plane waves:    1058
 k-point 31 :  -0.3333 0.1333 0.0000  plane waves:    1057
 k-point 32 :  -0.2667 0.1333 0.0000  plane waves:    1057
 k-point 33 :  -0.2000 0.1333 0.0000  plane waves:    1058
 k-point 34 :  -0.1333 0.1333 0.0000  plane waves:    1049
 k-point 35 :   0.2000 0.2000 0.0000  plane waves:    1054
 k-point 36 :   0.2667 0.2000 0.0000  plane waves:    1055
 k-point 37 :   0.3333 0.2000 0.0000  plane waves:    1054
 k-point 38 :   0.4000 0.2000 0.0000  plane waves:    1060
 k-point 39 :   0.4667 0.2000 0.0000  plane waves:    1062
 k-point 40 :  -0.4667 0.2000 0.0000  plane waves:    1069
 k-point 41 :  -0.4000 0.2000 0.0000  plane waves:    1073
 k-point 42 :  -0.3333 0.2000 0.0000  plane waves:    1061
 k-point 43 :  -0.2667 0.2000 0.0000  plane waves:    1062
 k-point 44 :  -0.2000 0.2000 0.0000  plane waves:    1057
 k-point 45 :   0.2667 0.2667 0.0000  plane waves:    1054
 k-point 46 :   0.3333 0.2667 0.0000  plane waves:    1054
 k-point 47 :   0.4000 0.2667 0.0000  plane waves:    1050
 k-point 48 :   0.4667 0.2667 0.0000  plane waves:    1056
 k-point 49 :  -0.4667 0.2667 0.0000  plane waves:    1059
 k-point 50 :  -0.4000 0.2667 0.0000  plane waves:    1062
 k-point 51 :  -0.3333 0.2667 0.0000  plane waves:    1058
 k-point 52 :  -0.2667 0.2667 0.0000  plane waves:    1063
 k-point 53 :   0.3333 0.3333 0.0000  plane waves:    1046
 k-point 54 :   0.4000 0.3333 0.0000  plane waves:    1048
 k-point 55 :   0.4667 0.3333 0.0000  plane waves:    1052
 k-point 56 :  -0.4667 0.3333 0.0000  plane waves:    1062
 k-point 57 :  -0.4000 0.3333 0.0000  plane waves:    1058
 k-point 58 :  -0.3333 0.3333 0.0000  plane waves:    1063
 k-point 59 :   0.4000 0.4000 0.0000  plane waves:    1058
 k-point 60 :   0.4667 0.4000 0.0000  plane waves:    1063
 k-point 61 :  -0.4667 0.4000 0.0000  plane waves:    1057
 k-point 62 :  -0.4000 0.4000 0.0000  plane waves:    1059
 k-point 63 :   0.4667 0.4667 0.0000  plane waves:    1050
 k-point 64 :  -0.4667 0.4667 0.0000  plane waves:    1052
 k-point 65 :   0.2000 0.1333 0.0667  plane waves:    1040
 k-point 66 :   0.2667 0.1333 0.0667  plane waves:    1047
 k-point 67 :   0.3333 0.1333 0.0667  plane waves:    1055
 k-point 68 :   0.4000 0.1333 0.0667  plane waves:    1061
 k-point 69 :   0.4667 0.1333 0.0667  plane waves:    1055
 k-point 70 :  -0.4667 0.1333 0.0667  plane waves:    1061
 k-point 71 :   0.2667 0.2000 0.0667  plane waves:    1046
 k-point 72 :   0.3333 0.2000 0.0667  plane waves:    1053
 k-point 73 :   0.4000 0.2000 0.0667  plane waves:    1060
 k-point 74 :   0.4667 0.2000 0.0667  plane waves:    1057
 k-point 75 :  -0.4667 0.2000 0.0667  plane waves:    1059
 k-point 76 :  -0.4000 0.2000 0.0667  plane waves:    1060
 k-point 77 :  -0.3333 0.2000 0.0667  plane waves:    1059
 k-point 78 :  -0.2667 0.2000 0.0667  plane waves:    1060
 k-point 79 :  -0.2000 0.2000 0.0667  plane waves:    1058
 k-point 80 :  -0.1333 0.2000 0.0667  plane waves:    1057
 k-point 81 :   0.3333 0.2667 0.0667  plane waves:    1056
 k-point 82 :   0.4000 0.2667 0.0667  plane waves:    1051
 k-point 83 :   0.4667 0.2667 0.0667  plane waves:    1055
 k-point 84 :  -0.4667 0.2667 0.0667  plane waves:    1062
 k-point 85 :  -0.4000 0.2667 0.0667  plane waves:    1059
 k-point 86 :  -0.3333 0.2667 0.0667  plane waves:    1061
 k-point 87 :  -0.2667 0.2667 0.0667  plane waves:    1056
 k-point 88 :  -0.2000 0.2667 0.0667  plane waves:    1058
 k-point 89 :   0.4000 0.3333 0.0667  plane waves:    1052
 k-point 90 :   0.4667 0.3333 0.0667  plane waves:    1058
 k-point 91 :  -0.4667 0.3333 0.0667  plane waves:    1062
 k-point 92 :  -0.4000 0.3333 0.0667  plane waves:    1069
 k-point 93 :  -0.3333 0.3333 0.0667  plane waves:    1067
 k-point 94 :  -0.2667 0.3333 0.0667  plane waves:    1064
 k-point 95 :   0.4667 0.4000 0.0667  plane waves:    1055
 k-point 96 :  -0.4667 0.4000 0.0667  plane waves:    1059
 k-point 97 :  -0.4000 0.4000 0.0667  plane waves:    1064
 k-point 98 :  -0.3333 0.4000 0.0667  plane waves:    1061
 k-point 99 :  -0.4667 0.4667 0.0667  plane waves:    1060
 k-point ** :  -0.4000 0.4667 0.0667  plane waves:    1059
 k-point ** :   0.4000 0.2667 0.1333  plane waves:    1052
 k-point ** :   0.4667 0.2667 0.1333  plane waves:    1055
 k-point ** :  -0.4667 0.2667 0.1333  plane waves:    1063
 k-point ** :  -0.4000 0.2667 0.1333  plane waves:    1061
 k-point ** :   0.4667 0.3333 0.1333  plane waves:    1056
 k-point ** :  -0.4667 0.3333 0.1333  plane waves:    1054
 k-point ** :  -0.4000 0.3333 0.1333  plane waves:    1062
 k-point ** :  -0.3333 0.3333 0.1333  plane waves:    1063
 k-point ** :  -0.2667 0.3333 0.1333  plane waves:    1064
 k-point ** :  -0.2000 0.3333 0.1333  plane waves:    1054
 k-point ** :  -0.4667 0.4000 0.1333  plane waves:    1059
 k-point ** :  -0.4000 0.4000 0.1333  plane waves:    1063
 k-point ** :  -0.3333 0.4000 0.1333  plane waves:    1063
 k-point ** :  -0.2667 0.4000 0.1333  plane waves:    1063
 k-point ** :  -0.4000 0.4667 0.1333  plane waves:    1058
 k-point ** :  -0.3333 0.4667 0.1333  plane waves:    1065
 k-point ** :  -0.4000 0.4000 0.2000  plane waves:    1058
 k-point ** :  -0.3333 0.4000 0.2000  plane waves:    1063
 k-point ** :  -0.3333 0.4667 0.2000  plane waves:    1057
 k-point ** :  -0.2667 0.4667 0.2000  plane waves:    1059

 maximum and minimum number of plane-waves per node :      1073     1038

 maximum number of plane-waves:      1073
 maximum index in each direction: 
   IXMAX=    7   IYMAX=    7   IZMAX=    7
   IXMIN=   -7   IYMIN=   -7   IZMIN=   -7

 WARNING: aliasing errors must be expected set NGX to  30 to avoid them
 WARNING: aliasing errors must be expected set NGY to  30 to avoid them
 WARNING: aliasing errors must be expected set NGZ to  30 to avoid them
 aliasing errors are usually negligible using standard VASP settings
 and one can safely disregard these warnings

 serial   3D FFT for wavefunctions
 parallel 3D FFT for charge:
    minimum data exchange during FFTs selected (reduces bandwidth)


 total amount of memory used by VASP on root node    41722. kBytes
========================================================================

   base      :      30000. kBytes
   nonl-proj :       8390. kBytes
   fftplans  :        304. kBytes
   grid      :        903. kBytes
   one-center:          6. kBytes
   wavefun   :       2119. kBytes
 
     INWAV:  cpu time    0.0000: real time    0.0003
 Broyden mixing: mesh for mixing (old mesh)
   NGX = 15   NGY = 15   NGZ = 15
  (NGX  = 48   NGY  = 48   NGZ  = 48)
  gives a total of   3375 points

 initial charge density was supplied:
 charge density of overlapping atoms calculated
 number of electron       8.0000000 magnetization 
 keeping initial charge density in first step


--------------------------------------------------------------------------------------------------------


 Maximum index for augmentation-charges          643 (set IRDMAX)


--------------------------------------------------------------------------------------------------------


 First call to EWALD:  gamma=   0.485
 Maximum number of real-space cells 3x 3x 3
 Maximum number of reciprocal cells 3x 3x 3

 FEWALD executed in parallel
    FEWALD:  cpu time    0.0020: real time    0.0021


----------------------------------------- Iteration    1(   1)  ---------------------------------------


    POTLOK:  cpu time    0.0100: real time    0.0103
    SETDIJ:  cpu time    0.0020: real time    0.0017
     EDDAV:  cpu time    0.4669: real time    0.4667
       DOS:  cpu time    0.0010: real time    0.0009
    --------------------------------------------
      LOOP:  cpu time    0.4809: real time    0.5085

 eigenvalue-minimisations  :  3856
 total energy-change (2. order) :-0.2344087E+01  (-0.2880941E+03)
 number of electron       8.0000000 magnetization 
 augmentation part        8.0000000 magnetization 

 Free energy of the ion-electron system (eV)
  ---------------------------------------------------
  alpha Z        PSCENC =         2.76051321
  Ewald energy   TEWEN  =      -213.98274834
  -Hartree energ DENC   =       -14.16697611
  -exchange      EXHF   =         0.00000000
  -V(xc)+E(xc)   XCENC  =       -19.33179483
  PAW double counting   =        65.95520812      -30.76852678
  entropy T*S    EENTRO =        -0.00169855
  eigenvalues    EBANDS =         1.06000831
  atomic energy  EATOM  =       206.13192747
  Solvation  Ediel_sol  =         0.00000000
  ---------------------------------------------------
  free energy    TOTEN  =        -2.34408750 eV

  energy without entropy =       -2.34238895  energy(sigma->0) =       -2.34323822


--------------------------------------------------------------------------------------------------------




----------------------------------------- Iteration    1(   2)  ---------------------------------------


     EDDAV:  cpu time    0.7289: real time    0.7314
       DOS:  cpu time    0.0000: real time    0.0006
    --------------------------------------------
      LOOP:  cpu time    0.7289: real time    0.7366

 eigenvalue-minimisations  :  5648
 total energy-change (2. order) :-0.8229476E+01  (-0.8118730E+01)
 number of electron       8.0000000 magnetization 
 augmentation part        8.0000000 magnetization 

 Free energy of the ion-electron system (eV)
  ---------------------------------------------------
  alpha Z        PSCENC =         2.76051321
  Ewald energy   TEWEN  =      -213.98274834
  -Hartree energ DENC   =       -14.16697611
  -exchange      EXHF   =         0.00000000
  -V(xc)+E(xc)   XCENC  =       -19.33179483
  PAW double counting   =        65.95520812      -30.76852678
  entropy T*S    EENTRO =        -0.00000000
  eigenvalues    EBANDS =        -7.17116658
  atomic energy  EATOM  =       206.13192747
  Solvation  Ediel_sol  =         0.00000000
  ---------------------------------------------------
  free energy    TOTEN  =       -10.57356383 eV

  energy without entropy =      -10.57356383  energy(sigma->0) =      -10.57356383


--------------------------------------------------------------------------------------------------------




----------------------------------------- Iteration    1(   3)  ---------------------------------------


     EDDAV:  cpu time    0.5149: real time    0.5150
       DOS:  cpu time    0.0010: real time    0.0006
    --------------------------------------------
      LOOP:  cpu time    0.5169: real time    0.5244

 eigenvalue-minimisations  :  4176
 total energy-change (2. order) :-0.5781015E-01  (-0.5781015E-01)
 number of electron       8.0000000 magnetization 
 augmentation part        8.0000000 magnetization 

 Free energy of the ion-electron system (eV)
  ---------------------------------------------------
  alpha Z        PSCENC =         2.76051321
  Ewald energy   TEWEN  =      -213.98274834
  -Hartree energ DENC   =       -14.16697611
  -exchange      EXHF   =         0.00000000
  -V(xc)+E(xc)   XCENC  =       -19.33179483
  PAW double counting   =        65.95520812      -30.76852678
  entropy T*S    EENTRO =        -0.00000000
  eigenvalues    EBANDS =        -7.22897672
  atomic energy  EATOM  =       206.13192747
  Solvation  Ediel_sol  =         0.00000000
  ---------------------------------------------------
  free energy    TOTEN  =       -10.63137397 eV

  energy without entropy =      -10.63137397  energy(sigma->0) =      -10.63137397


--------------------------------------------------------------------------------------------------------




----------------------------------------- Iteration    1(   4)  ---------------------------------------


     EDDAV:  cpu time    1.0858: real time    1.0888
       DOS:  cpu time    0.0000: real time    0.0006
    --------------------------------------------
      LOOP:  cpu time    1.0868: real time    1.1049

 eigenvalue-minimisations  :  7408
 total energy-change (2. order) :-0.2046243E-03  (-0.2046243E-03)
 number of electron       8.0000000 magnetization 
 augmentation part        8.0000000 magnetization 

 Free energy of the ion-electron system (eV)
  ---------------------------------------------------
  alpha Z        PSCENC =         2.76051321
  Ewald energy   TEWEN  =      -213.98274834
  -Hartree energ DENC   =       -14.16697611
  -exchange      EXHF   =         0.00000000
  -V(xc)+E(xc)   XCENC  =       -19.33179483
  PAW double counting   =        65.95520812      -30.76852678
  entropy T*S    EENTRO =        -0.00000000
  eigenvalues    EBANDS =        -7.22918135
  atomic energy  EATOM  =       206.13192747
  Solvation  Ediel_sol  =         0.00000000
  ---------------------------------------------------
  free energy    TOTEN  =       -10.63157860 eV

  energy without entropy =      -10.63157860  energy(sigma->0) =      -10.63157860


--------------------------------------------------------------------------------------------------------




----------------------------------------- Iteration    1(   5)  ---------------------------------------


     EDDAV:  cpu time    0.5049: real time    0.5093
       DOS:  cpu time    0.0000: real time    0.0006
    CHARGE:  cpu time    0.0260: real time    0.0258
    MIXING:  cpu time    0.0010: real time    0.0010
    --------------------------------------------
      LOOP:  cpu time    0.5349: real time    0.5452

 eigenvalue-minimisations  :  4112
 total energy-change (2. order) :-0.1077007E-07  (-0.1075453E-07)
 number of electron       7.9999996 magnetization 
 augmentation part       -0.4661271 magnetization 

 Broyden mixing:
  rms(total) = 0.25436E+00    rms(broyden)= 0.25436E+00
  rms(prec ) = 0.69833E+00
  weight for this iteration     100.00

 Free energy of the ion-electron system (eV)
  ---------------------------------------------------
  alpha Z        PSCENC =         2.76051321
  Ewald energy   TEWEN  =      -213.98274834
  -Hartree energ DENC   =       -14.16697611
  -exchange      EXHF   =         0.00000000
  -V(xc)+E(xc)   XCENC  =       -19.33179483
  PAW double counting   =        65.95520812      -30.76852678
  entropy T*S    EENTRO =        -0.00000000
  eigenvalues    EBANDS =        -7.22918136
  atomic energy  EATOM  =       206.13192747
  Solvation  Ediel_sol  =         0.00000000
  ---------------------------------------------------
  free energy    TOTEN  =       -10.63157861 eV

  energy without entropy =      -10.63157861  energy(sigma->0) =      -10.63157861


--------------------------------------------------------------------------------------------------------




----------------------------------------- Iteration    1(   6)  ---------------------------------------


    POTLOK:  cpu time    0.0050: real time    0.0054
    SETDIJ:  cpu time    0.0010: real time    0.0016
     EDDAV:  cpu time    0.7289: real time    0.7308
       DOS:  cpu time    0.0000: real time    0.0006
    CHARGE:  cpu time    0.0260: real time    0.0251
    MIXING:  cpu time    0.0000: real time    0.0004
    --------------------------------------------
      LOOP:  cpu time    0.7619: real time    0.7684

 eigenvalue-minimisations  :  5424
 total energy-change (2. order) : 0.5776048E-01  (-0.3183996E-02)
 number of electron       7.9999996 magnetization 
 augmentation part       -0.4630774 magnetization 

 Broyden mixing:
  rms(total) = 0.15476E+00    rms(broyden)= 0.15476E+00
  rms(prec ) = 0.42529E+00
  weight for this iteration     100.00

 eigenvalues of (default mixing * dielectric matrix)
  average eigenvalue GAMMA=   2.5370
  2.5370

 Free energy of the ion-electron system (eV)
  ---------------------------------------------------
  alpha Z        PSCENC =         2.76051321
  Ewald energy   TEWEN  =      -213.98274834
  -Hartree energ DENC   =       -15.31513369
  -exchange      EXHF   =         0.00000000
  -V(xc)+E(xc)   XCENC  =       -19.15542150
  PAW double counting   =        67.69214754      -32.55070743
  entropy T*S    EENTRO =        -0.00000000
  eigenvalues    EBANDS =        -6.15439540
  atomic energy  EATOM  =       206.13192747
  Solvation  Ediel_sol  =         0.00000000
  ---------------------------------------------------
  free energy    TOTEN  =       -10.57381813 eV

  energy without entropy =      -10.57381813  energy(sigma->0) =      -10.57381813


--------------------------------------------------------------------------------------------------------




----------------------------------------- Iteration    1(   7)  ---------------------------------------


    POTLOK:  cpu time    0.0040: real time    0.0053
    SETDIJ:  cpu time    0.0010: real time    0.0015
     EDDAV:  cpu time    0.7999: real time    0.7994
       DOS:  cpu time    0.0000: real time    0.0006
    CHARGE:  cpu time    0.0250: real time    0.0251
    MIXING:  cpu time    0.0000: real time    0.0003
    --------------------------------------------
      LOOP:  cpu time    0.8319: real time    0.8411

 eigenvalue-minimisations  :  5856
 total energy-change (2. order) : 0.3169619E-01  (-0.7289286E-02)
 number of electron       7.9999997 magnetization 
 augmentation part       -0.4596052 magnetization 

 Broyden mixing:
  rms(total) = 0.11141E-01    rms(broyden)= 0.11141E-01
  rms(prec ) = 0.28013E-01
  weight for this iteration     100.00

 eigenvalues of (default mixing * dielectric matrix)
  average eigenvalue GAMMA=   2.5080
  2.5080  2.5080

 Free energy of the ion-electron system (eV)
  ---------------------------------------------------
  alpha Z        PSCENC =         2.76051321
  Ewald energy   TEWEN  =      -213.98274834
  -Hartree energ DENC   =       -17.33773890
  -exchange      EXHF   =         0.00000000
  -V(xc)+E(xc)   XCENC  =       -18.83773718
  PAW double counting   =        69.84576032      -34.75933876
  entropy T*S    EENTRO =        -0.00000000
  eigenvalues    EBANDS =        -4.36275977
  atomic energy  EATOM  =       206.13192747
  Solvation  Ediel_sol  =         0.00000000
  ---------------------------------------------------
  free energy    TOTEN  =       -10.54212194 eV

  energy without entropy =      -10.54212194  energy(sigma->0) =      -10.54212194


--------------------------------------------------------------------------------------------------------




----------------------------------------- Iteration    1(   8)  ---------------------------------------


    POTLOK:  cpu time    0.0060: real time    0.0053
    SETDIJ:  cpu time    0.0010: real time    0.0015
     EDDAV:  cpu time    0.6009: real time    0.6039
       DOS:  cpu time    0.0010: real time    0.0006
    CHARGE:  cpu time    0.0250: real time    0.0251
    MIXING:  cpu time    0.0000: real time    0.0003
    --------------------------------------------
      LOOP:  cpu time    0.6349: real time    0.6409

 eigenvalue-minimisations  :  4688
 total energy-change (2. order) :-0.1346513E-02  (-0.2375238E-03)
 number of electron       7.9999997 magnetization 
 augmentation part       -0.4599074 magnetization 

 Broyden mixing:
  rms(total) = 0.27796E-02    rms(broyden)= 0.27796E-02
  rms(prec ) = 0.88292E-02
  weight for this iteration     100.00

 eigenvalues of (default mixing * dielectric matrix)
  average eigenvalue GAMMA=   2.1762
  1.1305  2.3987  2.9993

 Free energy of the ion-electron system (eV)
  ---------------------------------------------------
  alpha Z        PSCENC =         2.76051321
  Ewald energy   TEWEN  =      -213.98274834
  -Hartree energ DENC   =       -17.31205330
  -exchange      EXHF   =         0.00000000
  -V(xc)+E(xc)   XCENC  =       -18.83874039
  PAW double counting   =        69.15711076      -34.05139369
  entropy T*S    EENTRO =        -0.00000000
  eigenvalues    EBANDS =        -4.40808418
  atomic energy  EATOM  =       206.13192747
  Solvation  Ediel_sol  =         0.00000000
  ---------------------------------------------------
  free energy    TOTEN  =       -10.54346846 eV

  energy without entropy =      -10.54346846  energy(sigma->0) =      -10.54346846


--------------------------------------------------------------------------------------------------------




----------------------------------------- Iteration    1(   9)  ---------------------------------------


    POTLOK:  cpu time    0.0050: real time    0.0053
    SETDIJ:  cpu time    0.0010: real time    0.0015
     EDDAV:  cpu time    0.9439: real time    0.9455
       DOS:  cpu time    0.0000: real time    0.0006
    CHARGE:  cpu time    0.0250: real time    0.0250
    MIXING:  cpu time    0.0010: real time    0.0003
    --------------------------------------------
      LOOP:  cpu time    0.9769: real time    0.9877

 eigenvalue-minimisations  :  6656
 total energy-change (2. order) :-0.1623469E-03  (-0.1874687E-04)
 number of electron       7.9999997 magnetization 
 augmentation part       -0.4599714 magnetization 

 Broyden mixing:
  rms(total) = 0.12171E-02    rms(broyden)= 0.12171E-02
  rms(prec ) = 0.31782E-02
  weight for this iteration     100.00

 eigenvalues of (default mixing * dielectric matrix)
  average eigenvalue GAMMA=   2.2555
  0.9500  3.0906  2.4907  2.4907

 Free energy of the ion-electron system (eV)
  ---------------------------------------------------
  alpha Z        PSCENC =         2.76051321
  Ewald energy   TEWEN  =      -213.98274834
  -Hartree energ DENC   =       -17.35629442
  -exchange      EXHF   =         0.00000000
  -V(xc)+E(xc)   XCENC  =       -18.83165696
  PAW double counting   =        69.05764157      -33.94907376
  entropy T*S    EENTRO =        -0.00000000
  eigenvalues    EBANDS =        -4.37393958
  atomic energy  EATOM  =       206.13192747
  Solvation  Ediel_sol  =         0.00000000
  ---------------------------------------------------
  free energy    TOTEN  =       -10.54363080 eV

  energy without entropy =      -10.54363080  energy(sigma->0) =      -10.54363080


--------------------------------------------------------------------------------------------------------




----------------------------------------- Iteration    1(  10)  ---------------------------------------


    POTLOK:  cpu time    0.0050: real time    0.0053
    SETDIJ:  cpu time    0.0010: real time    0.0015
     EDDAV:  cpu time    0.6259: real time    0.6279
       DOS:  cpu time    0.0000: real time    0.0006
    CHARGE:  cpu time    0.0250: real time    0.0251
    MIXING:  cpu time    0.0000: real time    0.0003
    --------------------------------------------
      LOOP:  cpu time    0.6579: real time    0.6654

 eigenvalue-minimisations  :  4816
 total energy-change (2. order) :-0.1304711E-04  (-0.2023868E-05)
 number of electron       7.9999997 magnetization 
 augmentation part       -0.4598603 magnetization 

 Broyden mixing:
  rms(total) = 0.25849E-03    rms(broyden)= 0.25849E-03
  rms(prec ) = 0.71223E-03
  weight for this iteration     100.00

 eigenvalues of (default mixing * dielectric matrix)
  average eigenvalue GAMMA=   2.0914
  3.3665  2.6889  2.2330  0.9461  1.2227

 Free energy of the ion-electron system (eV)
  ---------------------------------------------------
  alpha Z        PSCENC =         2.76051321
  Ewald energy   TEWEN  =      -213.98274834
  -Hartree energ DENC   =       -17.36981529
  -exchange      EXHF   =         0.00000000
  -V(xc)+E(xc)   XCENC  =       -18.83105229
  PAW double counting   =        69.12547070      -34.01909840
  entropy T*S    EENTRO =        -0.00000000
  eigenvalues    EBANDS =        -4.35884092
  atomic energy  EATOM  =       206.13192747
  Solvation  Ediel_sol  =         0.00000000
  ---------------------------------------------------
  free energy    TOTEN  =       -10.54364385 eV

  energy without entropy =      -10.54364385  energy(sigma->0) =      -10.54364385


--------------------------------------------------------------------------------------------------------




----------------------------------------- Iteration    1(  11)  ---------------------------------------


    POTLOK:  cpu time    0.0060: real time    0.0053
    SETDIJ:  cpu time    0.0010: real time    0.0015
     EDDAV:  cpu time    0.9858: real time    0.9883
       DOS:  cpu time    0.0000: real time    0.0006
    --------------------------------------------
      LOOP:  cpu time    0.9938: real time    1.0240

 eigenvalue-minimisations  :  6832
 total energy-change (2. order) : 0.9808051E-06  (-0.1419371E-06)
 number of electron       7.9999997 magnetization 
 augmentation part       -0.4598603 magnetization 

 Free energy of the ion-electron system (eV)
  ---------------------------------------------------
  alpha Z        PSCENC =         2.76051321
  Ewald energy   TEWEN  =      -213.98274834
  -Hartree energ DENC   =       -17.36720102
  -exchange      EXHF   =         0.00000000
  -V(xc)+E(xc)   XCENC  =       -18.83128775
  PAW double counting   =        69.10240397      -33.99532383
  entropy T*S    EENTRO =        -0.00000000
  eigenvalues    EBANDS =        -4.36192659
  atomic energy  EATOM  =       206.13192747
  Solvation  Ediel_sol  =         0.00000000
  ---------------------------------------------------
  free energy    TOTEN  =       -10.54364287 eV

  energy without entropy =      -10.54364287  energy(sigma->0) =      -10.54364287


--------------------------------------------------------------------------------------------------------




 average (electrostatic) potential at core
  the test charge radii are     0.9892
  (the norm of the test charge is              1.0000)
       1 -85.3205       2 -85.3205
 
 
 
 E-fermi :   4.4463     XC(G=0):  -8.6541     alpha+bet : -9.8341


 k-point     1 :       0.0000    0.0000    0.0000
  band No.  band energies     occupation 
      1      -6.7136      2.00000
      2       4.0007      2.00000
      3       4.0007      2.00000
      4       4.0007      2.00000
      5       5.2600      0.00000
      6       6.4623      0.00000
      7       6.4623      0.00000
      8       6.4623      0.00000
      9      11.2325      0.00000
     10      11.5952      0.00000
     11      11.5952      0.00000
     12      14.6080      0.00000
     13      14.6080      0.00000
     14      14.6080      0.00000
     15      18.2649      0.00000
     16      24.8659      0.00000

 k-point     2 :       0.0667    0.0000    0.0000
  band No.  band energies     occupation 
      1      -6.6647      2.00000
      2       3.3211      2.00000
      3       3.9243      2.00000
      4       3.9243      2.00000
      5       5.6397      0.00000
      6       6.5753      0.00000
      7       6.5753      0.00000
      8       6.6832      0.00000
      9      11.4400      0.00000
     10      11.4400      0.00000
     11      11.4482      0.00000
     12      14.4198      0.00000
     13      14.9293      0.00000
     14      14.9293      0.00000
     15      18.6077      0.00000
     16      23.9786      0.00000

 k-point     3 :       0.1333    0.0000    0.0000
  band No.  band energies     occupation 
      1      -6.5190      2.00000
      2       2.2337      2.00000
      3       3.7390      2.00000
      4       3.7390      2.00000
      5       5.6844      0.00000
      6       6.8500      0.00000
      7       6.8500      0.00000
      8       7.5331      0.00000
      9      11.1573      0.00000
     10      11.1573      0.00000
     11      11.9915      0.00000
     12      14.0809      0.00000
     13      15.7220      0.00000
     14      15.7220      0.00000
     15      19.4366      0.00000
     16      22.7007      0.00000

 k-point     4 :       0.2000    0.0000    0.0000
  band No.  band energies     occupation 
      1      -6.2809      2.00000
      2       1.1335      2.00000
      3       3.5198      2.00000
      4       3.5198      2.00000
      5       5.4887      0.00000
      6       7.1508      0.00000
      7       7.1508      0.00000
      8       8.6142      0.00000
      9      11.0136      0.00000
     10      11.0136      0.00000
     11      12.4391      0.00000
     12      14.1323      0.00000
     13      16.7375      0.00000
     14      16.7375      0.00000
     15      20.2015      0.00000
     16      21.2136      0.00000

 k-point     5 :       0.2667    0.0000    0.0000
  band No.  band energies     occupation 
      1      -5.9594      2.00000
      2       0.0929      2.00000
      3       3.3160      2.00000
      4       3.3160      2.00000
      5       5.2662      0.00000
      6       7.3524      0.00000
      7       7.3524      0.00000
      8       9.7183      0.00000
      9      11.1778      0.00000
     10      11.1778      0.00000
     11      12.3714      0.00000
     12      14.9711      0.00000
     13      17.6331      0.00000
     14      17.6331      0.00000
     15      19.5728      0.00000
     16      19.9869      0.00000

 k-point     6 :       0.3333    0.0000    0.0000
  band No.  band energies     occupation 
      1      -5.5750      2.00000
      2      -0.8440      2.00000
      3       3.1521      2.00000
      4       3.1521      2.00000
      5       5.0766      0.00000
      6       7.4156      0.00000
      7       7.4156      0.00000
      8      10.7509      0.00000
      9      11.6993      0.00000
     10      11.6993      0.00000
     11      12.2252      0.00000
     12      15.9345      0.00000
     13      17.2775      0.00000
     14      17.2775      0.00000
     15      18.7320      0.00000
     16      20.2074      0.00000

 k-point     7 :       0.4000    0.0000    0.0000
  band No.  band energies     occupation 
      1      -5.1765      2.00000
      2      -1.6163      2.00000
      3       3.0391      2.00000
      4       3.0391      2.00000
      5       4.9426      0.00000
      6       7.3973      0.00000
      7       7.3973      0.00000
      8      11.3444      0.00000
      9      12.5194      0.00000
     10      12.5194      0.00000
     11      12.5838      0.00000
     12      15.8346      0.00000
     13      16.0428      0.00000
     14      16.0428      0.00000
     15      19.1459      0.00000
     16      21.4889      0.00000

 k-point     8 :       0.4667    0.0000    0.0000
  band No.  band energies     occupation 
      1      -4.8837      2.00000
      2      -2.0974      2.00000
      3       2.9818      2.00000
      4       2.9818      2.00000
      5       4.8737      0.00000
      6       7.3691      0.00000
      7       7.3691      0.00000
      8      11.4085      0.00000
      9      13.5431      0.00000
     10      13.5523      0.00000
     11      13.5523      0.00000
     12      14.7600      0.00000
     13      14.7600      0.00000
     14      14.8766      0.00000
     15      20.6025      0.00000
     16      22.5542      0.00000

 k-point     9 :       0.0667    0.0667    0.0000
  band No.  band energies     occupation 
      1      -6.6483      2.00000
      2       3.3236      2.00000
      3       3.7731      2.00000
      4       3.7731      2.00000
      5       5.9200      0.00000
      6       6.3119      0.00000
      7       6.7712      0.00000
      8       6.7712      0.00000
      9      11.1325      0.00000
     10      11.5195      0.00000
     11      11.6704      0.00000
     12      14.7276      0.00000
     13      14.7276      0.00000
     14      14.9287      0.00000
     15      18.7402      0.00000
     16      23.7743      0.00000

 k-point    10 :       0.1333    0.0667    0.0000
  band No.  band energies     occupation 
      1      -6.5347      2.00000
      2       2.4841      2.00000
      3       3.5469      2.00000
      4       3.6401      2.00000
      5       6.1128      0.00000
      6       6.3683      0.00000
      7       7.1029      0.00000
      8       7.3775      0.00000
      9      10.7520      0.00000
     10      11.6167      0.00000
     11      11.9645      0.00000
     12      14.4528      0.00000
     13      15.1497      0.00000
     14      15.6839      0.00000
     15      19.4363      0.00000
     16      22.6302      0.00000

 k-point    11 :       0.2000    0.0667    0.0000
  band No.  band energies     occupation 
      1      -6.3268      2.00000
      2       1.4418      2.00000
      3       3.3148      2.00000
      4       3.4433      2.00000
      5       5.9429      0.00000
      6       6.6713      0.00000
      7       7.4456      0.00000
      8       8.2891      0.00000
      9      10.5602      0.00000
     10      11.5107      0.00000
     11      12.5366      0.00000
     12      14.2463      0.00000
     13      15.9931      0.00000
     14      16.7330      0.00000
     15      20.2817      0.00000
     16      21.0872      0.00000

 k-point    12 :       0.2667    0.0667    0.0000
  band No.  band energies     occupation 
      1      -6.0318      2.00000
      2       0.4078      2.00000
      3       3.1170      2.00000
      4       3.2031      2.00000
      5       5.7258      0.00000
      6       6.9836      0.00000
      7       7.6771      0.00000
      8       9.1154      0.00000
      9      10.7981      0.00000
     10      11.6234      0.00000
     11      12.6840      0.00000
     12      14.7469      0.00000
     13      16.9286      0.00000
     14      17.7862      0.00000
     15      19.7033      0.00000
     16      19.7383      0.00000

 k-point    13 :       0.3333    0.0667    0.0000
  band No.  band energies     occupation 
      1      -5.6650      2.00000
      2      -0.5518      2.00000
      3       2.9726      2.00000
      4       2.9737      2.00000
      5       5.5272      0.00000
      6       7.1740      0.00000
      7       7.7412      0.00000
      8       9.8326      0.00000
      9      11.5224      0.00000
     10      12.0747      0.00000
     11      12.4993      0.00000
     12      15.6839      0.00000
     13      17.0044      0.00000
     14      17.9036      0.00000
     15      19.1981      0.00000
     16      19.4037      0.00000

 k-point    14 :       0.4000    0.0667    0.0000
  band No.  band energies     occupation 
[...]
      5       5.4325      0.00000
      6       6.0934      0.00000
      7      11.3704      0.00000
      8      11.4539      0.00000
      9      12.9841      0.00000
     10      13.5776      0.00000
     11      15.2906      0.00000
     12      15.9989      0.00000
     13      17.1759      0.00000
     14      17.3733      0.00000
     15      19.8668      0.00000
     16      20.1962      0.00000

 k-point   101 :       0.4000    0.2667    0.1333
  band No.  band energies     occupation 
      1      -5.4586      2.00000
      2      -0.4356      2.00000
      3       1.6413      2.00000
      4       2.6760      2.00000
      5       6.4240      0.00000
      6       7.1282      0.00000
      7       8.1694      0.00000
      8       9.1748      0.00000
      9      11.2611      0.00000
     10      13.5181      0.00000
     11      13.9578      0.00000
     12      15.5729      0.00000
     13      16.6484      0.00000
     14      17.8575      0.00000
     15      18.3192      0.00000
     16      20.5090      0.00000

 k-point   102 :       0.4667    0.2667    0.1333
  band No.  band energies     occupation 
      1      -5.0769      2.00000
      2      -1.0865      2.00000
      3       1.2925      2.00000
      4       2.4587      2.00000
      5       6.6574      0.00000
      6       7.2897      0.00000
      7       8.1770      0.00000
      8       9.5241      0.00000
      9      11.7448      0.00000
     10      13.3096      0.00000
     11      14.6414      0.00000
     12      15.6382      0.00000
     13      16.8441      0.00000
     14      17.6569      0.00000
     15      18.9341      0.00000
     16      20.4286      0.00000

 k-point   103 :      -0.4667    0.2667    0.1333
  band No.  band energies     occupation 
      1      -4.6738      2.00000
      2      -1.7091      2.00000
      3       1.0943      2.00000
      4       2.2721      2.00000
      5       6.6840      0.00000
      6       7.3168      0.00000
      7       8.7570      0.00000
      8       9.6662      0.00000
      9      12.1900      0.00000
     10      12.6042      0.00000
     11      15.1914      0.00000
     12      15.7653      0.00000
     13      16.6292      0.00000
     14      18.1494      0.00000
     15      19.7536      0.00000
     16      20.2170      0.00000

 k-point   104 :      -0.4000    0.2667    0.1333
  band No.  band energies     occupation 
      1      -4.3669      2.00000
      2      -2.1375      2.00000
      3       1.0068      2.00000
      4       2.1671      2.00000
      5       6.6827      0.00000
      6       7.2470      0.00000
      7       9.4132      0.00000
      8       9.9947      0.00000
      9      11.0466      0.00000
     10      13.5738      0.00000
     11      14.7244      0.00000
     12      15.4736      0.00000
     13      17.2596      0.00000
     14      18.6438      0.00000
     15      19.5737      0.00000
     16      20.6875      0.00000

 k-point   105 :       0.4667    0.3333    0.1333
  band No.  band energies     occupation 
      1      -4.9207      2.00000
      2      -1.2214      2.00000
      3       1.3338      2.00000
      4       2.0798      2.00000
      5       6.1960      0.00000
      6       7.0280      0.00000
      7       8.4524      0.00000
      8      10.3027      0.00000
      9      12.2945      0.00000
     10      13.5850      0.00000
     11      14.7028      0.00000
     12      16.2721      0.00000
     13      16.7007      0.00000
     14      17.4155      0.00000
     15      18.6908      0.00000
     16      19.8788      0.00000

 k-point   106 :      -0.4667    0.3333    0.1333
  band No.  band energies     occupation 
      1      -4.5157      2.00000
      2      -1.7672      2.00000
      3       1.0230      2.00000
      4       1.8834      2.00000
      5       6.4807      0.00000
      6       7.5084      0.00000
      7       8.2231      0.00000
      8      10.6172      0.00000
      9      12.3922      0.00000
     10      12.9412      0.00000
     11      15.6543      0.00000
     12      15.9884      0.00000
     13      17.0802      0.00000
     14      17.4918      0.00000
     15      19.2509      0.00000
     16      20.2380      0.00000

 k-point   107 :      -0.4000    0.3333    0.1333
  band No.  band energies     occupation 
      1      -4.1504      2.00000
      2      -2.2213      2.00000
      3       0.8047      2.00000
      4       1.7913      2.00000
      5       6.5972      0.00000
      6       7.9607      0.00000
      7       8.4864      0.00000
      8      10.5500      0.00000
      9      11.2735      0.00000
     10      13.8495      0.00000
     11      14.8142      0.00000
     12      16.3666      0.00000
     13      17.5002      0.00000
     14      18.4544      0.00000
     15      19.7065      0.00000
     16      20.6345      0.00000

 k-point   108 :      -0.3333    0.3333    0.1333
  band No.  band energies     occupation 
      1      -4.0375      2.00000
      2      -2.3530      2.00000
      3       0.6894      2.00000
      4       1.8260      2.00000
      5       6.7342      0.00000
      6       7.8065      0.00000
      7       9.5669      0.00000
      8       9.7722      0.00000
      9      10.8477      0.00000
     10      13.5297      0.00000
     11      15.1286      0.00000
     12      16.3749      0.00000
     13      18.1856      0.00000
     14      18.9083      0.00000
     15      19.4165      0.00000
     16      19.9678      0.00000

 k-point   109 :      -0.2667    0.3333    0.1333
  band No.  band energies     occupation 
      1      -4.2905      2.00000
      2      -2.0513      2.00000
      3       0.7056      2.00000
      4       1.9737      2.00000
      5       6.9181      0.00000
      6       7.6654      0.00000
      7       8.7518      0.00000
      8      10.4835      0.00000
      9      11.0129      0.00000
     10      12.5553      0.00000
     11      16.1141      0.00000
     12      16.3820      0.00000
     13      17.8202      0.00000
     14      17.8745      0.00000
     15      19.1702      0.00000
     16      20.3095      0.00000

 k-point   110 :      -0.2000    0.3333    0.1333
  band No.  band energies     occupation 
      1      -4.6867      2.00000
      2      -1.5667      2.00000
      3       0.8950      2.00000
      4       2.2026      2.00000
      5       7.1111      0.00000
      6       7.3275      0.00000
      7       8.1616      0.00000
      8      10.1993      0.00000
      9      11.9177      0.00000
     10      12.1896      0.00000
     11      15.8293      0.00000
     12      16.4892      0.00000
     13      16.7779      0.00000
     14      17.6355      0.00000
     15      19.1328      0.00000
     16      20.3275      0.00000

 k-point   111 :      -0.4667    0.4000    0.1333
  band No.  band energies     occupation 
      1      -4.2870      2.00000
      2      -2.0168      2.00000
      3       1.1640      2.00000
      4       1.6050      2.00000
      5       6.0838      0.00000
      6       6.6031      0.00000
      7       9.2796      0.00000
      8      11.3468      0.00000
      9      12.7239      0.00000
     10      13.3818      0.00000
     11      15.4013      0.00000
     12      16.2960      0.00000
     13      16.7606      0.00000
     14      17.8807      0.00000
     15      19.0880      0.00000
     16      19.6110      0.00000

 k-point   112 :      -0.4000    0.4000    0.1333
  band No.  band energies     occupation 
      1      -3.8863      2.00000
      2      -2.4556      2.00000
      3       0.8800      2.00000
      4       1.4769      2.00000
      5       6.3519      0.00000
      6       7.2653      0.00000
      7       9.0517      0.00000
      8      10.9943      0.00000
      9      12.0758      0.00000
     10      13.9521      0.00000
     11      14.9065      0.00000
     12      16.7399      0.00000
     13      17.5551      0.00000
     14      18.0974      0.00000
     15      19.5773      0.00000
     16      20.1287      0.00000

 k-point   113 :      -0.3333    0.4000    0.1333
  band No.  band energies     occupation 
      1      -3.6779      2.00000
      2      -2.6666      2.00000
      3       0.6385      2.00000
      4       1.5316      2.00000
      5       6.4992      0.00000
      6       8.3264      0.00000
      7       8.8470      0.00000
      8       9.8784      0.00000
      9      11.9049      0.00000
     10      13.5232      0.00000
     11      15.2979      0.00000
     12      16.9794      0.00000
     13      17.9388      0.00000
     14      18.8921      0.00000
     15      19.6442      0.00000
     16      20.3321      0.00000

 k-point   114 :      -0.2667    0.4000    0.1333
  band No.  band energies     occupation 
      1      -3.9017      2.00000
      2      -2.4318      2.00000
      3       0.5583      2.00000
      4       1.7101      2.00000
      5       6.6978      0.00000
      6       8.5301      0.00000
      7       8.9330      0.00000
      8       9.5353      0.00000
      9      11.4960      0.00000
     10      12.7946      0.00000
     11      16.0409      0.00000
     12      17.2707      0.00000
     13      17.5374      0.00000
     14      18.7201      0.00000
     15      19.2156      0.00000
     16      20.3743      0.00000

 k-point   115 :      -0.4000    0.4667    0.1333
  band No.  band energies     occupation 
      1      -3.5755      2.00000
      2      -2.8096      2.00000
      3       1.1460      2.00000
      4       1.2910      2.00000
      5       6.1078      0.00000
      6       6.2805      0.00000
      7      10.2383      0.00000
      8      11.2146      0.00000
      9      12.9360      0.00000
     10      13.8567      0.00000
     11      15.0548      0.00000
     12      15.9693      0.00000
     13      17.4141      0.00000
     14      18.6085      0.00000
     15      19.2057      0.00000
     16      20.1564      0.00000

 k-point   116 :      -0.3333    0.4667    0.1333
  band No.  band energies     occupation 
      1      -3.3450      2.00000
      2      -3.0146      2.00000
      3       0.8420      2.00000
      4       1.3256      2.00000
      5       6.3079      0.00000
      6       7.1685      0.00000
      7       9.9700      0.00000
      8      10.0907      0.00000
      9      12.8485      0.00000
     10      13.5659      0.00000
     11      15.2976      0.00000
     12      16.1197      0.00000
     13      18.4853      0.00000
     14      18.9681      0.00000
     15      19.3963      0.00000
     16      19.6805      0.00000

 k-point   117 :      -0.4000    0.4000    0.2000
  band No.  band energies     occupation 
      1      -4.1114      2.00000
      2      -2.1984      2.00000
      3       0.7866      2.00000
      4       1.5948      2.00000
      5       7.2254      0.00000
      6       7.6207      0.00000
      7       7.9738      0.00000
      8      10.8309      0.00000
      9      11.6774      0.00000
     10      13.1195      0.00000
     11      15.7767      0.00000
     12      16.9808      0.00000
     13      17.1900      0.00000
     14      18.0798      0.00000
     15      18.8665      0.00000
     16      20.8880      0.00000

 k-point   118 :      -0.3333    0.4000    0.2000
  band No.  band energies     occupation 
      1      -3.7686      2.00000
      2      -2.5586      2.00000
      3       0.6799      2.00000
      4       1.4206      2.00000
      5       7.4947      0.00000
      6       7.7178      0.00000
      7       8.5163      0.00000
      8       9.6721      0.00000
      9      11.9166      0.00000
     10      13.7505      0.00000
     11      15.1050      0.00000
     12      16.8954      0.00000
     13      17.7916      0.00000
     14      19.0496      0.00000
     15      19.5508      0.00000
     16      20.6292      0.00000

 k-point   119 :      -0.3333    0.4667    0.2000
  band No.  band energies     occupation 
      1      -3.4862      2.00000
      2      -2.8406      2.00000
      3       0.8607      2.00000
      4       1.1318      2.00000
      5       7.2420      0.00000
      6       7.3889      0.00000
      7       8.8132      0.00000
      8       9.8231      0.00000
      9      12.8233      0.00000
     10      13.7699      0.00000
     11      15.1739      0.00000
     12      16.0917      0.00000
     13      18.4629      0.00000
     14      19.3219      0.00000
     15      19.4667      0.00000
     16      20.3415      0.00000

 k-point   120 :      -0.2667    0.4667    0.2000
  band No.  band energies     occupation 
      1      -3.4032      2.00000
      2      -2.9120      2.00000
      3       0.7462      2.00000
      4       1.1456      2.00000
      5       7.4739      0.00000
      6       8.4319      0.00000
      7       8.5576      0.00000
      8       8.6874      0.00000
      9      12.8132      0.00000
     10      13.6671      0.00000
     11      15.2554      0.00000
     12      16.1572      0.00000
     13      18.5872      0.00000
     14      19.3777      0.00000
     15      20.1730      0.00000
     16      20.3732      0.00000


--------------------------------------------------------------------------------------------------------


 soft charge-density along one line, spin component           1
         0         1         2         3         4         5         6         7         8         9
 total charge-density along one line
 
 pseudopotential strength for first ion, spin component:           1
 18.626   0.001   0.000   0.000   0.000  -0.000  -0.000  -0.000
  0.001   0.006  -0.000  -0.000  -0.000   0.000   0.000   0.000
  0.000  -0.000   4.200  -0.000  -0.000  -0.003   0.000   0.000
  0.000  -0.000  -0.000   4.200  -0.000   0.000  -0.003   0.000
  0.000  -0.000  -0.000  -0.000   4.200   0.000   0.000  -0.003
 -0.000   0.000  -0.003   0.000   0.000   0.005  -0.000  -0.000
 -0.000   0.000   0.000  -0.003   0.000  -0.000   0.005  -0.000
 -0.000   0.000   0.000   0.000  -0.003  -0.000  -0.000   0.005
 total augmentation occupancy for first ion, spin component:           1
  1.545  -0.520   0.000  -0.000  -0.000   0.000  -0.000  -0.000
 -0.520   0.478  -0.000   0.000   0.000  -0.000  -0.000  -0.000
  0.000   0.000   0.906   0.000  -0.000  -0.420  -0.000   0.000
  0.000   0.000  -0.000   0.906   0.000   0.000  -0.420   0.000
  0.000  -0.000  -0.000  -0.000   0.906   0.000   0.000  -0.420
  0.000   0.000  -0.420  -0.000   0.000   0.233   0.000   0.000
  0.000   0.000  -0.000  -0.420  -0.000   0.000   0.233  -0.000
 -0.000   0.000   0.000   0.000  -0.420  -0.000  -0.000   0.233


------------------------ aborting loop because EDIFF is reached ----------------------------------------


    CHARGE:  cpu time    0.0230: real time    0.0241
    FORLOC:  cpu time    0.0010: real time    0.0002
    FORNL :  cpu time    0.0330: real time    0.0326
    STRESS:  cpu time    0.4519: real time    0.4518
    FORCOR:  cpu time    0.0050: real time    0.0053
    FORHAR:  cpu time    0.0010: real time    0.0014
    MIXING:  cpu time    0.0010: real time    0.0004
    OFIELD:  cpu time    0.0000: real time    0.0000

  FORCE on cell =-STRESS in cart. coord.  units (eV):
  Direction    XX          YY          ZZ          XY          YZ          ZX
  --------------------------------------------------------------------------------------
  Alpha Z     2.76051     2.76051     2.76051
  Ewald     -71.32761   -71.32761   -71.32761    -0.00000    -0.00000    -0.00000
  Hartree     5.78913     5.78913     5.78913     0.00000     0.00000     0.00000
  E(xc)     -24.32047   -24.32047   -24.32047    -0.00000    -0.00000    -0.00000
  Local     -32.20714   -32.20714   -32.20714     0.00001     0.00001     0.00001
  n-local    76.06328    77.57363    71.90284     1.89182    -1.06867     0.36585
  augment   -11.73710   -11.73710   -11.73710    -0.00001    -0.00001    -0.00001
  Kinetic    54.77308    53.49111    49.66935     3.59489    -0.96955     1.03036
  Fock        0.00000     0.00000     0.00000     0.00000     0.00000     0.00000
  -------------------------------------------------------------------------------------
  Total      -3.21825    -3.21825    -3.21825    -0.00000     0.00000    -0.00000
  in kB    -105.70764  -105.70764  -105.70764    -0.00000     0.00000    -0.00000
  external pressure =     -105.71 kB  Pullay stress =        0.00 kB


 VOLUME and BASIS-vectors are now :
 -----------------------------------------------------------------------------
  energy-cutoff  :      450.00
  volume of cell :       48.78
      direct lattice vectors                 reciprocal lattice vectors
     0.000000000  2.900000000  2.900000000    -0.172413793  0.172413793  0.172413793
     2.900000000  0.000000000  2.900000000     0.172413793 -0.172413793  0.172413793
     2.900000000  2.900000000  0.000000000     0.172413793  0.172413793 -0.172413793

  length of vectors
     4.101219331  4.101219331  4.101219331     0.298629450  0.298629450  0.298629450


 FORCES acting on ions
    electron-ion (+dipol)            ewald-force                    non-local-force                 convergence-correction
 -----------------------------------------------------------------------------------------------
   0.119E-06 0.119E-06 0.103E-06   0.103E-13 0.934E-14 0.112E-13   0.382E-16 0.170E-15 0.146E-15   -.661E-09 -.661E-09 -.661E-09
   -.119E-06 -.119E-06 -.103E-06   -.104E-13 -.931E-14 -.113E-13   -.149E-15 -.139E-15 -.180E-15   0.661E-09 0.661E-09 0.661E-09
 -----------------------------------------------------------------------------------------------
   0.252E-13 0.135E-12 0.300E-14   -.132E-15 0.271E-16 -.909E-16   -.111E-15 0.312E-16 -.347E-16   -.128E-14 -.169E-15 0.342E-15
 
 
 POSITION                                       TOTAL-FORCE (eV/Angst)
 -----------------------------------------------------------------------------------
      5.07500      5.07500      5.07500        -0.000000      0.000000     -0.000000
      0.72500      0.72500      0.72500         0.000000      0.000000      0.000000
 -----------------------------------------------------------------------------------
    total drift:                                0.000000      0.000000      0.000000


--------------------------------------------------------------------------------------------------------



  FREE ENERGIE OF THE ION-ELECTRON SYSTEM (eV)
  ---------------------------------------------------
  free  energy   TOTEN  =       -10.54364287 eV

  energy  without entropy=      -10.54364287  energy(sigma->0) =      -10.54364287
 


--------------------------------------------------------------------------------------------------------


    POTLOK:  cpu time    0.0070: real time    0.0071


--------------------------------------------------------------------------------------------------------


 writing wavefunctions
     LOOP+:  cpu time    9.0166: real time    9.2012
    4ORBIT:  cpu time    0.0000: real time    0.0000

 total amount of memory used by VASP on root node    41722. kBytes
========================================================================

   base      :      30000. kBytes
   nonl-proj :       8390. kBytes
   fftplans  :        304. kBytes
   grid      :        903. kBytes
   one-center:          6. kBytes
   wavefun   :       2119. kBytes
 
  
  
 General timing and accounting informations for this job:
 ========================================================
  
                  Total CPU time used (sec):        9.933
                            User time (sec):        9.767
                          System time (sec):        0.167
                         Elapsed time (sec):       10.560
  
                   Maximum memory used (kb):       87772.
                   Average memory used (kb):           0.
  
                          Minor page faults:        17065
                          Major page faults:            0
                 Voluntary context switches:         3040
