 vasp.5.4.1 24Jun15 (build May 02 2016 14:41:14) complex                        
  
 executed on           IFC91_ompi date 2022.05.07  11:07:51
 running on   16 total cores
 distrk:  each k-point on   16 cores,    1 groups
 distr:  one band on NCORES_PER_BAND=   1 cores,   16 groups


--------------------------------------------------------------------------------------------------------


 INCAR:
 POTCAR:   PAW_PBE Si 05Jan2001                   

 ----------------------------------------------------------------------------- 
|                                                                             |
|           W    W    AA    RRRRR   N    N  II  N    N   GGGG   !!!           |
|           W    W   A  A   R    R  NN   N  II  NN   N  G    G  !!!           |
|           W    W  A    A  R    R  N N  N  II  N N  N  G       !!!           |
|           W WW W  AAAAAA  RRRRR   N  N N  II  N  N N  G  GGG   !            |
|           WW  WW  A    A  R   R   N   NN  II  N   NN  G    G                |
|           W    W  A    A  R    R  N    N  II  N    N   GGGG   !!!           |
|                                                                             |
|      For optimal performance we recommend to set                            |
|        NCORE= 4 - approx SQRT( number of cores)                             |
|      NCORE specifies how many cores store one orbital (NPAR=cpu/NCORE).     |
|      This setting can  greatly improve the performance of VASP for DFT.     |
|      The default, NPAR=number of cores might be grossly inefficient         |
|      on modern multi-core architectures or massively parallel machines.     |
|      Do your own testing !!!!                                               |
|      Unfortunately you need to use the default for GW and RPA calculations. |
|      (for HF NCORE is supported but not extensively tested yet)             |
|                                                                             |
 ----------------------------------------------------------------------------- 

 POTCAR:   PAW_PBE Si 05Jan2001                   
   VRHFIN =Si: s2p2                                                             
   LEXCH  = PE                                                                  
   EATOM  =   103.0669 eV,    7.5752 Ry                                         
                                                                                
   TITEL  = PAW_PBE Si 05Jan2001                                                
   LULTRA =        F    use ultrasoft PP ?                                      
   IUNSCR =        1    unscreen: 0-lin 1-nonlin 2-no                           
   RPACOR =    1.500    partial core radius                                     
   POMASS =   28.085; ZVAL   =    4.000    mass and valenz                      
   RCORE  =    1.900    outmost cutoff radius                                   
   RWIGS  =    2.480; RWIGS  =    1.312    wigner-seitz radius (au A)           
   ENMAX  =  245.345; ENMIN  =  184.009 eV                                      
   ICORE  =        2    local potential                                         
   LCOR   =        T    correct aug charges                                     
   LPAW   =        T    paw PP                                                  
   EAUG   =  322.069                                                            
   DEXC   =    -.007                                                            
   RMAX   =    2.944    core radius for proj-oper                               
   RAUG   =    1.300    factor for augmentation sphere                          
   RDEP   =    1.993    radius for radial grids                                 
   QCUT   =   -4.246; QGAM   =    8.493    optimization parameters              
                                                                                
   Description                                                                  
     l     E      TYP  RCUT    TYP  RCUT                                        
     0   .000     23  1.900                                                     
     0   .000     23  1.900                                                     
     1   .000     23  1.900                                                     
     1   .000     23  1.900                                                     
     2   .000      7  1.900                                                     
  local pseudopotential read in
  partial core-charges read in
  atomic valenz-charges read in
  non local Contribution for L=           0  read in
    real space projection operators read in
  non local Contribution for L=           0  read in
    real space projection operators read in
  non local Contribution for L=           1  read in
    real space projection operators read in
  non local Contribution for L=           1  read in
    real space projection operators read in
    PAW grid and wavefunctions read in
 
   number of l-projection  operators is LMAX  =           4
   number of lm-projection operators is LMMAX =           8
 
 PAW_PBE Si 05Jan2001                   :
 energy of atom  1       EATOM= -103.0669
 kinetic energy error for atom=    0.1213 (will be added to EATOM!!)
 
 
 POSCAR: Real silicon structure                  
  positions in direct lattice
  No initial velocities read in
 exchange correlation table for  LEXCH =        8
   RHO(1)=    0.500       N(1)  =     2000
   RHO(2)=  100.500       N(2)  =     4000
 


--------------------------------------------------------------------------------------------------------


 ion  position               nearest neighbor table
   1  0.875  0.875  0.875-   2 2.51   2 2.51   2 2.51   2 2.51
   2  0.125  0.125  0.125-   1 2.51   1 2.51   1 2.51   1 2.51
 
  LATTYP: Found a face centered cubic cell.
 ALAT       =     5.8000000000
  
  Lattice vectors:
  
 A1 = (   0.0000000000,   2.9000000000,   2.9000000000)
 A2 = (   2.9000000000,   0.0000000000,   2.9000000000)
 A3 = (   2.9000000000,   2.9000000000,   0.0000000000)


Analysis of symmetry for initial positions (statically):
=====================================================================
 Subroutine PRICEL returns:
 Original cell was already a primitive cell.
 

 Routine SETGRP: Setting up the symmetry group for a 
 face centered cubic supercell.


 Subroutine GETGRP returns: Found 48 space group operations
 (whereof 12 operations were pure point group operations)
 out of a pool of 48 trial point group operations.


The static configuration has the point symmetry D_3d.
 The point group associated with its full space group is O_h .


Analysis of symmetry for dynamics (positions and initial velocities):
=====================================================================
 Subroutine PRICEL returns:
 Original cell was already a primitive cell.
 

 Routine SETGRP: Setting up the symmetry group for a 
 face centered cubic supercell.


 Subroutine GETGRP returns: Found 48 space group operations
 (whereof 12 operations were pure point group operations)
 out of a pool of 48 trial point group operations.


The dynamic configuration has the point symmetry D_3d.
 The point group associated with its full space group is O_h .
 
 
 KPOINTS: k-points                                

Automatic generation of k-mesh.
Space group operators:
 irot       det(A)        alpha          n_x          n_y          n_z        tau_x        tau_y        tau_z
    1     1.000000     0.000000     1.000000     0.000000     0.000000     0.000000     0.000000     0.000000
    2    -1.000000     0.000000     1.000000     0.000000     0.000000     0.000000     0.000000     0.000000
    3     1.000000   120.000000    -0.577350    -0.577350    -0.577350     0.000000     0.000000     0.000000
    4    -1.000000   120.000000    -0.577350    -0.577350    -0.577350     0.000000     0.000000     0.000000
    5     1.000000   120.000000     0.577350     0.577350     0.577350     0.000000     0.000000     0.000000
    6    -1.000000   120.000000     0.577350     0.577350     0.577350     0.000000     0.000000     0.000000
    7     1.000000   180.000000     0.000000    -0.707107     0.707107     0.000000     0.000000     0.000000
    8    -1.000000   180.000000     0.000000    -0.707107     0.707107     0.000000     0.000000     0.000000
    9     1.000000   180.000000     0.707107    -0.707107     0.000000     0.000000     0.000000     0.000000
   10    -1.000000   180.000000     0.707107    -0.707107     0.000000     0.000000     0.000000     0.000000
   11     1.000000   180.000000     0.707107     0.000000    -0.707107     0.000000     0.000000     0.000000
   12    -1.000000   180.000000     0.707107     0.000000    -0.707107     0.000000     0.000000     0.000000
   13     1.000000    90.000000     0.000000     0.000000    -1.000000     0.500000     0.000000     0.000000
   14    -1.000000    90.000000     0.000000     0.000000    -1.000000     0.500000     0.000000     0.000000
   15     1.000000   180.000000     0.000000     0.707107     0.707107     0.500000     0.000000     0.000000
   16    -1.000000   180.000000     0.000000     0.707107     0.707107     0.500000     0.000000     0.000000
   17     1.000000    90.000000     0.000000     1.000000     0.000000     0.500000     0.000000     0.000000
   18    -1.000000    90.000000     0.000000     1.000000     0.000000     0.500000     0.000000     0.000000
   19     1.000000   180.000000     0.000000     0.000000     1.000000     0.000000     0.000000     0.500000
   20    -1.000000   180.000000     0.000000     0.000000     1.000000     0.000000     0.000000     0.500000
   21     1.000000   120.000000    -0.577350     0.577350     0.577350     0.000000     0.000000     0.500000
   22    -1.000000   120.000000    -0.577350     0.577350     0.577350     0.000000     0.000000     0.500000
   23     1.000000   120.000000    -0.577350     0.577350    -0.577350     0.000000     0.000000     0.500000
   24    -1.000000   120.000000    -0.577350     0.577350    -0.577350     0.000000     0.000000     0.500000
   25     1.000000    90.000000     0.000000     0.000000     1.000000     0.000000     0.500000     0.000000
   26    -1.000000    90.000000     0.000000     0.000000     1.000000     0.000000     0.500000     0.000000
   27     1.000000    90.000000    -1.000000     0.000000     0.000000     0.000000     0.500000     0.000000
   28    -1.000000    90.000000    -1.000000     0.000000     0.000000     0.000000     0.500000     0.000000
   29     1.000000   180.000000     0.707107     0.000000     0.707107     0.000000     0.500000     0.000000
   30    -1.000000   180.000000     0.707107     0.000000     0.707107     0.000000     0.500000     0.000000
   31     1.000000   120.000000     0.577350    -0.577350     0.577350     0.500000     0.000000     0.000000
   32    -1.000000   120.000000     0.577350    -0.577350     0.577350     0.500000     0.000000     0.000000
   33     1.000000   120.000000    -0.577350    -0.577350     0.577350     0.500000     0.000000     0.000000
   34    -1.000000   120.000000    -0.577350    -0.577350     0.577350     0.500000     0.000000     0.000000
   35     1.000000   180.000000     1.000000     0.000000     0.000000     0.500000     0.000000     0.000000
   36    -1.000000   180.000000     1.000000     0.000000     0.000000     0.500000     0.000000     0.000000
   37     1.000000    90.000000     0.000000    -1.000000     0.000000     0.000000     0.000000     0.500000
   38    -1.000000    90.000000     0.000000    -1.000000     0.000000     0.000000     0.000000     0.500000
   39     1.000000   180.000000     0.707107     0.707107     0.000000     0.000000     0.000000     0.500000
   40    -1.000000   180.000000     0.707107     0.707107     0.000000     0.000000     0.000000     0.500000
   41     1.000000    90.000000     1.000000     0.000000     0.000000     0.000000     0.000000     0.500000
   42    -1.000000    90.000000     1.000000     0.000000     0.000000     0.000000     0.000000     0.500000
   43     1.000000   120.000000     0.577350    -0.577350    -0.577350     0.000000     0.500000     0.000000
   44    -1.000000   120.000000     0.577350    -0.577350    -0.577350     0.000000     0.500000     0.000000
   45     1.000000   180.000000     0.000000     1.000000     0.000000     0.000000     0.500000     0.000000
   46    -1.000000   180.000000     0.000000     1.000000     0.000000     0.000000     0.500000     0.000000
   47     1.000000   120.000000     0.577350     0.577350    -0.577350     0.000000     0.500000     0.000000
   48    -1.000000   120.000000     0.577350     0.577350    -0.577350     0.000000     0.500000     0.000000
 
 Subroutine IBZKPT returns following result:
 ===========================================
 
 Found    120 irreducible k-points:
 
 Following reciprocal coordinates:
            Coordinates               Weight
  0.000000  0.000000  0.000000      1.000000
  0.066667  0.000000  0.000000      8.000000
  0.133333  0.000000  0.000000      8.000000
  0.200000  0.000000  0.000000      8.000000
  0.266667  0.000000  0.000000      8.000000
  0.333333  0.000000  0.000000      8.000000
  0.400000  0.000000  0.000000      8.000000
  0.466667  0.000000  0.000000      8.000000
  0.066667  0.066667  0.000000      6.000000
  0.133333  0.066667  0.000000     24.000000
  0.200000  0.066667  0.000000     24.000000
  0.266667  0.066667  0.000000     24.000000
  0.333333  0.066667  0.000000     24.000000
  0.400000  0.066667  0.000000     24.000000
  0.466667  0.066667  0.000000     24.000000
 -0.466667  0.066667  0.000000     24.000000
 -0.400000  0.066667  0.000000     24.000000
 -0.333333  0.066667  0.000000     24.000000
 -0.266667  0.066667  0.000000     24.000000
 -0.200000  0.066667  0.000000     24.000000
 -0.133333  0.066667  0.000000     24.000000
 -0.066667  0.066667  0.000000     12.000000
  0.133333  0.133333  0.000000      6.000000
  0.200000  0.133333  0.000000     24.000000
  0.266667  0.133333  0.000000     24.000000
  0.333333  0.133333  0.000000     24.000000
  0.400000  0.133333  0.000000     24.000000
  0.466667  0.133333  0.000000     24.000000
 -0.466667  0.133333  0.000000     24.000000
 -0.400000  0.133333  0.000000     24.000000
 -0.333333  0.133333  0.000000     24.000000
 -0.266667  0.133333  0.000000     24.000000
 -0.200000  0.133333  0.000000     24.000000
 -0.133333  0.133333  0.000000     12.000000
  0.200000  0.200000  0.000000      6.000000
  0.266667  0.200000  0.000000     24.000000
  0.333333  0.200000  0.000000     24.000000
  0.400000  0.200000  0.000000     24.000000
  0.466667  0.200000  0.000000     24.000000
 -0.466667  0.200000  0.000000     24.000000
 -0.400000  0.200000  0.000000     24.000000
 -0.333333  0.200000  0.000000     24.000000
 -0.266667  0.200000  0.000000     24.000000
 -0.200000  0.200000  0.000000     12.000000
  0.266667  0.266667  0.000000      6.000000
  0.333333  0.266667  0.000000     24.000000
  0.400000  0.266667  0.000000     24.000000
  0.466667  0.266667  0.000000     24.000000
 -0.466667  0.266667  0.000000     24.000000
 -0.400000  0.266667  0.000000     24.000000
 -0.333333  0.266667  0.000000     24.000000
 -0.266667  0.266667  0.000000     12.000000
  0.333333  0.333333  0.000000      6.000000
  0.400000  0.333333  0.000000     24.000000
  0.466667  0.333333  0.000000     24.000000
 -0.466667  0.333333  0.000000     24.000000
 -0.400000  0.333333  0.000000     24.000000
 -0.333333  0.333333  0.000000     12.000000
  0.400000  0.400000  0.000000      6.000000
  0.466667  0.400000  0.000000     24.000000
 -0.466667  0.400000  0.000000     24.000000
 -0.400000  0.400000  0.000000     12.000000
  0.466667  0.466667  0.000000      6.000000
 -0.466667  0.466667  0.000000     12.000000
  0.200000  0.133333  0.066667     24.000000
  0.266667  0.133333  0.066667     48.000000
  0.333333  0.133333  0.066667     48.000000
  0.400000  0.133333  0.066667     48.000000
  0.466667  0.133333  0.066667     48.000000
 -0.466667  0.133333  0.066667     48.000000
  0.266667  0.200000  0.066667     24.000000
  0.333333  0.200000  0.066667     48.000000
  0.400000  0.200000  0.066667     48.000000
  0.466667  0.200000  0.066667     48.000000
 -0.466667  0.200000  0.066667     48.000000
 -0.400000  0.200000  0.066667     48.000000
 -0.333333  0.200000  0.066667     48.000000
 -0.266667  0.200000  0.066667     48.000000
 -0.200000  0.200000  0.066667     48.000000
 -0.133333  0.200000  0.066667     24.000000
  0.333333  0.266667  0.066667     24.000000
  0.400000  0.266667  0.066667     48.000000
  0.466667  0.266667  0.066667     48.000000
 -0.466667  0.266667  0.066667     48.000000
 -0.400000  0.266667  0.066667     48.000000
 -0.333333  0.266667  0.066667     48.000000
 -0.266667  0.266667  0.066667     48.000000
 -0.200000  0.266667  0.066667     24.000000
  0.400000  0.333333  0.066667     24.000000
  0.466667  0.333333  0.066667     48.000000
 -0.466667  0.333333  0.066667     48.000000
 -0.400000  0.333333  0.066667     48.000000
 -0.333333  0.333333  0.066667     48.000000
 -0.266667  0.333333  0.066667     24.000000
  0.466667  0.400000  0.066667     24.000000
 -0.466667  0.400000  0.066667     48.000000
 -0.400000  0.400000  0.066667     48.000000
 -0.333333  0.400000  0.066667     24.000000
 -0.466667  0.466667  0.066667     24.000000
 -0.400000  0.466667  0.066667     24.000000
  0.400000  0.266667  0.133333     24.000000
  0.466667  0.266667  0.133333     48.000000
 -0.466667  0.266667  0.133333     48.000000
 -0.400000  0.266667  0.133333     48.000000
  0.466667  0.333333  0.133333     24.000000
 -0.466667  0.333333  0.133333     48.000000
 -0.400000  0.333333  0.133333     48.000000
 -0.333333  0.333333  0.133333     48.000000
 -0.266667  0.333333  0.133333     48.000000
 -0.200000  0.333333  0.133333     24.000000
 -0.466667  0.400000  0.133333     24.000000
 -0.400000  0.400000  0.133333     48.000000
 -0.333333  0.400000  0.133333     48.000000
 -0.266667  0.400000  0.133333     24.000000
 -0.400000  0.466667  0.133333     24.000000
 -0.333333  0.466667  0.133333     24.000000
 -0.400000  0.400000  0.200000     24.000000
 -0.333333  0.400000  0.200000     48.000000
 -0.333333  0.466667  0.200000     24.000000
 -0.266667  0.466667  0.200000     24.000000
 
 Following cartesian coordinates:
            Coordinates               Weight
  0.000000  0.000000  0.000000      1.000000
 -0.066667  0.066667  0.066667      8.000000
 -0.133333  0.133333  0.133333      8.000000
 -0.200000  0.200000  0.200000      8.000000
 -0.266667  0.266667  0.266667      8.000000
 -0.333333  0.333333  0.333333      8.000000
 -0.400000  0.400000  0.400000      8.000000
 -0.466667  0.466667  0.466667      8.000000
  0.000000  0.000000  0.133333      6.000000
 -0.066667  0.066667  0.200000     24.000000
 -0.133333  0.133333  0.266667     24.000000
 -0.200000  0.200000  0.333333     24.000000
 -0.266667  0.266667  0.400000     24.000000
 -0.333333  0.333333  0.466667     24.000000
 -0.400000  0.400000  0.533333     24.000000
  0.533333 -0.533333 -0.400000     24.000000
  0.466667 -0.466667 -0.333333     24.000000
  0.400000 -0.400000 -0.266667     24.000000
  0.333333 -0.333333 -0.200000     24.000000
  0.266667 -0.266667 -0.133333     24.000000
  0.200000 -0.200000 -0.066667     24.000000
  0.133333 -0.133333  0.000000     12.000000
  0.000000  0.000000  0.266667      6.000000
 -0.066667  0.066667  0.333333     24.000000
 -0.133333  0.133333  0.400000     24.000000
 -0.200000  0.200000  0.466667     24.000000
 -0.266667  0.266667  0.533333     24.000000
 -0.333333  0.333333  0.600000     24.000000
  0.600000 -0.600000 -0.333333     24.000000
  0.533333 -0.533333 -0.266667     24.000000
  0.466667 -0.466667 -0.200000     24.000000
  0.400000 -0.400000 -0.133333     24.000000
  0.333333 -0.333333 -0.066667     24.000000
  0.266667 -0.266667  0.000000     12.000000
  0.000000  0.000000  0.400000      6.000000
 -0.066667  0.066667  0.466667     24.000000
 -0.133333  0.133333  0.533333     24.000000
 -0.200000  0.200000  0.600000     24.000000
 -0.266667  0.266667  0.666667     24.000000
  0.666667 -0.666667 -0.266667     24.000000
  0.600000 -0.600000 -0.200000     24.000000
  0.533333 -0.533333 -0.133333     24.000000
  0.466667 -0.466667 -0.066667     24.000000
  0.400000 -0.400000  0.000000     12.000000
  0.000000  0.000000  0.533333      6.000000
 -0.066667  0.066667  0.600000     24.000000
 -0.133333  0.133333  0.666667     24.000000
 -0.200000  0.200000  0.733333     24.000000
  0.733333 -0.733333 -0.200000     24.000000
  0.666667 -0.666667 -0.133333     24.000000
  0.600000 -0.600000 -0.066667     24.000000
  0.533333 -0.533333  0.000000     12.000000
  0.000000  0.000000  0.666667      6.000000
 -0.066667  0.066667  0.733333     24.000000
 -0.133333  0.133333  0.800000     24.000000
  0.800000 -0.800000 -0.133333     24.000000
  0.733333 -0.733333 -0.066667     24.000000
  0.666667 -0.666667  0.000000     12.000000
  0.000000  0.000000  0.800000      6.000000
 -0.066667  0.066667  0.866667     24.000000
  0.866667 -0.866667 -0.066667     24.000000
  0.800000 -0.800000  0.000000     12.000000
  0.000000  0.000000  0.933333      6.000000
  0.933333 -0.933333  0.000000     12.000000
  0.000000  0.133333  0.266667     24.000000
 -0.066667  0.200000  0.333333     48.000000
 -0.133333  0.266667  0.400000     48.000000
 -0.200000  0.333333  0.466667     48.000000
 -0.266667  0.400000  0.533333     48.000000
  0.666667 -0.533333 -0.400000     48.000000
  0.000000  0.133333  0.400000     24.000000
 -0.066667  0.200000  0.466667     48.000000
 -0.133333  0.266667  0.533333     48.000000
 -0.200000  0.333333  0.600000     48.000000
  0.733333 -0.600000 -0.333333     48.000000
  0.666667 -0.533333 -0.266667     48.000000
  0.600000 -0.466667 -0.200000     48.000000
  0.533333 -0.400000 -0.133333     48.000000
  0.466667 -0.333333 -0.066667     48.000000
  0.400000 -0.266667  0.000000     24.000000
  0.000000  0.133333  0.533333     24.000000
 -0.066667  0.200000  0.600000     48.000000
 -0.133333  0.266667  0.666667     48.000000
  0.800000 -0.666667 -0.266667     48.000000
  0.733333 -0.600000 -0.200000     48.000000
  0.666667 -0.533333 -0.133333     48.000000
  0.600000 -0.466667 -0.066667     48.000000
  0.533333 -0.400000 -0.000000     24.000000
 -0.000000  0.133333  0.666667     24.000000
 -0.066667  0.200000  0.733333     48.000000
  0.866667 -0.733333 -0.200000     48.000000
  0.800000 -0.666667 -0.133333     48.000000
  0.733333 -0.600000 -0.066667     48.000000
  0.666667 -0.533333 -0.000000     24.000000
  0.000000  0.133333  0.800000     24.000000
  0.933333 -0.800000 -0.133333     48.000000
  0.866667 -0.733333 -0.066667     48.000000
  0.800000 -0.666667  0.000000     24.000000
  1.000000 -0.866667 -0.066667     24.000000
  0.933333 -0.800000 -0.000000     24.000000
 -0.000000  0.266667  0.533333     24.000000
 -0.066667  0.333333  0.600000     48.000000
  0.866667 -0.600000 -0.333333     48.000000
  0.800000 -0.533333 -0.266667     48.000000
 -0.000000  0.266667  0.666667     24.000000
  0.933333 -0.666667 -0.266667     48.000000
  0.866667 -0.600000 -0.200000     48.000000
  0.800000 -0.533333 -0.133333     48.000000
  0.733333 -0.466667 -0.066667     48.000000
  0.666667 -0.400000 -0.000000     24.000000
  1.000000 -0.733333 -0.200000     24.000000
  0.933333 -0.666667 -0.133333     48.000000
  0.866667 -0.600000 -0.066667     48.000000
  0.800000 -0.533333  0.000000     24.000000
  1.000000 -0.733333 -0.066667     24.000000
  0.933333 -0.666667  0.000000     24.000000
  1.000000 -0.600000 -0.200000     24.000000
  0.933333 -0.533333 -0.133333     48.000000
  1.000000 -0.600000 -0.066667     24.000000
  0.933333 -0.533333  0.000000     24.000000
 


--------------------------------------------------------------------------------------------------------




 Dimension of arrays:
   k-points           NKPTS =    120   k-points in BZ     NKDIM =    120   number of bands    NBANDS=     16
   number of dos      NEDOS =    301   number of ions     NIONS =      2
   non local maximal  LDIM  =      4   non local SUM 2l+1 LMDIM =      8
   total plane-waves  NPLWV =   1000
   max r-space proj   IRMAX =      1   max aug-charges    IRDMAX=    885
   dimension x,y,z NGX =    10 NGY =   10 NGZ =   10
   dimension x,y,z NGXF=    20 NGYF=   20 NGZF=   20
   support grid    NGXF=    20 NGYF=   20 NGZF=   20
   ions per type =               2
 NGX,Y,Z   is equivalent  to a cutoff of   4.05,  4.05,  4.05 a.u.
 NGXF,Y,Z  is equivalent  to a cutoff of   8.11,  8.11,  8.11 a.u.


 I would recommend the setting:
   dimension x,y,z NGX =    10 NGY =   10 NGZ =   10
 SYSTEM =  Silicon                                 
 POSCAR =  Real silicon structure                  

 Startparameter for this run:
   NWRITE =      2    write-flag & timer
   PREC   = normal    normal or accurate (medium, high low for compatibility)
   ISTART =      0    job   : 0-new  1-cont  2-samecut
   ICHARG =      2    charge: 1-file 2-atom 10-const
   ISPIN  =      1    spin polarized calculation?
   LNONCOLLINEAR =      F non collinear calculations
   LSORBIT =      F    spin-orbit coupling
   INIWAV =      1    electr: 0-lowe 1-rand  2-diag
   LASPH  =      F    aspherical Exc in radial PAW
   METAGGA=      F    non-selfconsistent MetaGGA calc.

 Electronic Relaxation 1
   ENCUT  =  100.0 eV   7.35 Ry    2.71 a.u.   3.34  3.34  3.34*2*pi/ulx,y,z
   ENINI  =  100.0     initial cutoff
   ENAUG  =  322.1 eV  augmentation charge cutoff
   NELM   =    100;   NELMIN=  4; NELMDL= -5     # of ELM steps 
   EDIFF  = 0.1E-05   stopping-criterion for ELM
   LREAL  =      F    real-space projection
   NLSPLINE    = F    spline interpolate recip. space projectors
   LCOMPAT=      F    compatible to vasp.4.4
   GGA_COMPAT  = T    GGA compatible to vasp.4.4-vasp.4.6
   LMAXPAW     = -100 max onsite density
   LMAXMIX     =    2 max onsite mixed and CHGCAR
   VOSKOWN=      0    Vosko Wilk Nusair interpolation
   ROPT   =    0.00000
 Ionic relaxation
   EDIFFG = 0.1E-04   stopping-criterion for IOM
   NSW    =      0    number of steps for IOM
   NBLOCK =      1;   KBLOCK =      1    inner block; outer block 
   IBRION =     -1    ionic relax: 0-MD 1-quasi-New 2-CG
   NFREE  =      0    steps in history (QN), initial steepest desc. (CG)
   ISIF   =      2    stress and relaxation
   IWAVPR =     10    prediction:  0-non 1-charg 2-wave 3-comb
   ISYM   =      2    0-nonsym 1-usesym 2-fastsym
   LCORR  =      T    Harris-Foulkes like correction to forces

   POTIM  = 0.5000    time-step for ionic-motion
   TEIN   =    0.0    initial temperature
   TEBEG  =    0.0;   TEEND  =   0.0 temperature during run
   SMASS  =  -3.00    Nose mass-parameter (am)
   estimated Nose-frequenzy (Omega)   =  0.10E-29 period in steps =****** mass=  -0.384E-27a.u.
   SCALEE = 1.0000    scale energy and forces
   NPACO  =    256;   APACO  = 16.0  distance and # of slots for P.C.
   PSTRESS=    0.0 pullay stress

  Mass of Ions in am
   POMASS =  28.09
  Ionic Valenz
   ZVAL   =   4.00
  Atomic Wigner-Seitz radii
   RWIGS  =  -1.00
  virtual crystal weights 
   VCA    =   1.00
   NELECT =       8.0000    total number of electrons
   NUPDOWN=      -1.0000    fix difference up-down

 DOS related values:
   EMIN   =  10.00;   EMAX   =-10.00  energy-range for DOS
   EFERMI =   0.00
   ISMEAR =     0;   SIGMA  =   0.10  broadening in eV -4-tet -1-fermi 0-gaus

 Electronic relaxation 2 (details)
   IALGO  =     38    algorithm
   LDIAG  =      T    sub-space diagonalisation (order eigenvalues)
   LSUBROT=      F    optimize rotation matrix (better conditioning)
   TURBO    =      0    0=normal 1=particle mesh
   IRESTART =      0    0=no restart 2=restart with 2 vectors
   NREBOOT  =      0    no. of reboots
   NMIN     =      0    reboot dimension
   EREF     =   0.00    reference energy to select bands
   IMIX   =      4    mixing-type and parameters
     AMIX     =   0.40;   BMIX     =  1.00
     AMIX_MAG =   1.60;   BMIX_MAG =  1.00
     AMIN     =   0.10
     WC   =   100.;   INIMIX=   1;  MIXPRE=   1;  MAXMIX= -45

 Intra band minimization:
   WEIMIN = 0.0000     energy-eigenvalue tresh-hold
   EBREAK =  0.16E-07  absolut break condition
   DEPER  =   0.30     relativ break condition  

   TIME   =   0.40     timestep for ELM

  volume/ion in A,a.u.               =      24.39       164.59
  Fermi-wavevector in a.u.,A,eV,Ry     =   0.896114  1.693411 10.925766  0.803021
  Thomas-Fermi vector in A             =   2.018532
 
 Write flags
   LWAVE  =      T    write WAVECAR
   LCHARG =      T    write CHGCAR
   LVTOT  =      F    write LOCPOT, total local potential
   LVHAR  =      F    write LOCPOT, Hartree potential only
   LELF   =      F    write electronic localiz. function (ELF)
   LORBIT =      0    0 simple, 1 ext, 2 COOP (PROOUT)


 Dipole corrections
   LMONO  =      F    monopole corrections only (constant potential shift)
   LDIPOL =      F    correct potential (dipole corrections)
   IDIPOL =      0    1-x, 2-y, 3-z, 4-all directions 
   EPSILON=  1.0000000 bulk dielectric constant

 Exchange correlation treatment:
   GGA     =    --    GGA type
   LEXCH   =     8    internal setting for exchange type
   VOSKOWN=      0    Vosko Wilk Nusair interpolation
   LHFCALC =     F    Hartree Fock is set to
   LHFONE  =     F    Hartree Fock one center treatment
   AEXX    =    0.0000 exact exchange contribution

 Linear response parameters
   LEPSILON=     F    determine dielectric tensor
   LRPA    =     F    only Hartree local field effects (RPA)
   LNABLA  =     F    use nabla operator in PAW spheres
   LVEL    =     F    velocity operator in full k-point grid
   LINTERFAST=   F  fast interpolation
   KINTER  =     0    interpolate to denser k-point grid
   CSHIFT  =0.1000    complex shift for real part using Kramers Kronig
   OMEGAMAX=  -1.0    maximum frequency
   DEG_THRESHOLD= 0.2000000E-02 threshold for treating states as degnerate
   RTIME   =    0.100 relaxation time in fs

 Orbital magnetization related:
   ORBITALMAG=     F  switch on orbital magnetization
   LCHIMAG   =     F  perturbation theory with respect to B field
   DQ        =  0.001000  dq finite difference perturbation B field



--------------------------------------------------------------------------------------------------------


 Static calculation
 charge density and potential will be updated during run
 non-spin polarized calculation
 Variant of blocked Davidson
 Davidson routine will perform the subspace rotation
 perform sub-space diagonalisation
    after iterative eigenvector-optimisation
 modified Broyden-mixing scheme, WC =      100.0
 initial mixing is a Kerker type mixing with AMIX =  0.4000 and BMIX =      1.0000
 Hartree-type preconditioning will be used
 using additional bands           12
 reciprocal scheme for non local part
 use partial core corrections
 calculate Harris-corrections to forces 
   (improved forces if not selfconsistent)
 use gradient corrections 
 use of overlap-Matrix (Vanderbilt PP)
 Gauss-broadening in eV      SIGMA  =   0.10


--------------------------------------------------------------------------------------------------------


  energy-cutoff  :      100.00
  volume of cell :       48.78
      direct lattice vectors                 reciprocal lattice vectors
     0.000000000  2.900000000  2.900000000    -0.172413793  0.172413793  0.172413793
     2.900000000  0.000000000  2.900000000     0.172413793 -0.172413793  0.172413793
     2.900000000  2.900000000  0.000000000     0.172413793  0.172413793 -0.172413793

  length of vectors
     4.101219331  4.101219331  4.101219331     0.298629450  0.298629450  0.298629450


 
 k-points in units of 2pi/SCALE and weight: k-points                                
   0.00000000  0.00000000  0.00000000       0.000
  -0.06666667  0.06666667  0.06666667       0.002
  -0.13333333  0.13333333  0.13333333       0.002
  -0.20000000  0.20000000  0.20000000       0.002
  -0.26666667  0.26666667  0.26666667       0.002
  -0.33333333  0.33333333  0.33333333       0.002
  -0.40000000  0.40000000  0.40000000       0.002
  -0.46666667  0.46666667  0.46666667       0.002
   0.00000000  0.00000000  0.13333333       0.002
  -0.06666667  0.06666667  0.20000000       0.007
  -0.13333333  0.13333333  0.26666667       0.007
  -0.20000000  0.20000000  0.33333333       0.007
  -0.26666667  0.26666667  0.40000000       0.007
  -0.33333333  0.33333333  0.46666667       0.007
  -0.40000000  0.40000000  0.53333333       0.007
   0.53333333 -0.53333333 -0.40000000       0.007
   0.46666667 -0.46666667 -0.33333333       0.007
   0.40000000 -0.40000000 -0.26666667       0.007
   0.33333333 -0.33333333 -0.20000000       0.007
   0.26666667 -0.26666667 -0.13333333       0.007
   0.20000000 -0.20000000 -0.06666667       0.007
   0.13333333 -0.13333333  0.00000000       0.004
   0.00000000  0.00000000  0.26666667       0.002
  -0.06666667  0.06666667  0.33333333       0.007
  -0.13333333  0.13333333  0.40000000       0.007
  -0.20000000  0.20000000  0.46666667       0.007
  -0.26666667  0.26666667  0.53333333       0.007
  -0.33333333  0.33333333  0.60000000       0.007
   0.60000000 -0.60000000 -0.33333333       0.007
   0.53333333 -0.53333333 -0.26666667       0.007
   0.46666667 -0.46666667 -0.20000000       0.007
   0.40000000 -0.40000000 -0.13333333       0.007
   0.33333333 -0.33333333 -0.06666667       0.007
   0.26666667 -0.26666667  0.00000000       0.004
   0.00000000  0.00000000  0.40000000       0.002
  -0.06666667  0.06666667  0.46666667       0.007
  -0.13333333  0.13333333  0.53333333       0.007
  -0.20000000  0.20000000  0.60000000       0.007
  -0.26666667  0.26666667  0.66666667       0.007
   0.66666667 -0.66666667 -0.26666667       0.007
   0.60000000 -0.60000000 -0.20000000       0.007
   0.53333333 -0.53333333 -0.13333333       0.007
   0.46666667 -0.46666667 -0.06666667       0.007
   0.40000000 -0.40000000  0.00000000       0.004
   0.00000000  0.00000000  0.53333333       0.002
  -0.06666667  0.06666667  0.60000000       0.007
  -0.13333333  0.13333333  0.66666667       0.007
  -0.20000000  0.20000000  0.73333333       0.007
   0.73333333 -0.73333333 -0.20000000       0.007
   0.66666667 -0.66666667 -0.13333333       0.007
   0.60000000 -0.60000000 -0.06666667       0.007
   0.53333333 -0.53333333  0.00000000       0.004
   0.00000000  0.00000000  0.66666667       0.002
  -0.06666667  0.06666667  0.73333333       0.007
  -0.13333333  0.13333333  0.80000000       0.007
   0.80000000 -0.80000000 -0.13333333       0.007
   0.73333333 -0.73333333 -0.06666667       0.007
   0.66666667 -0.66666667  0.00000000       0.004
   0.00000000  0.00000000  0.80000000       0.002
  -0.06666667  0.06666667  0.86666667       0.007
   0.86666667 -0.86666667 -0.06666667       0.007
   0.80000000 -0.80000000  0.00000000       0.004
   0.00000000  0.00000000  0.93333333       0.002
   0.93333333 -0.93333333  0.00000000       0.004
   0.00000000  0.13333333  0.26666667       0.007
  -0.06666667  0.20000000  0.33333333       0.014
  -0.13333333  0.26666667  0.40000000       0.014
  -0.20000000  0.33333333  0.46666667       0.014
  -0.26666667  0.40000000  0.53333333       0.014
   0.66666667 -0.53333333 -0.40000000       0.014
   0.00000000  0.13333333  0.40000000       0.007
  -0.06666667  0.20000000  0.46666667       0.014
  -0.13333333  0.26666667  0.53333333       0.014
  -0.20000000  0.33333333  0.60000000       0.014
   0.73333333 -0.60000000 -0.33333333       0.014
   0.66666667 -0.53333333 -0.26666667       0.014
   0.60000000 -0.46666667 -0.20000000       0.014
   0.53333333 -0.40000000 -0.13333333       0.014
   0.46666667 -0.33333333 -0.06666667       0.014
   0.40000000 -0.26666667  0.00000000       0.007
   0.00000000  0.13333333  0.53333333       0.007
  -0.06666667  0.20000000  0.60000000       0.014
  -0.13333333  0.26666667  0.66666667       0.014
   0.80000000 -0.66666667 -0.26666667       0.014
   0.73333333 -0.60000000 -0.20000000       0.014
   0.66666667 -0.53333333 -0.13333333       0.014
   0.60000000 -0.46666667 -0.06666667       0.014
   0.53333333 -0.40000000 -0.00000000       0.007
  -0.00000000  0.13333333  0.66666667       0.007
  -0.06666667  0.20000000  0.73333333       0.014
   0.86666667 -0.73333333 -0.20000000       0.014
   0.80000000 -0.66666667 -0.13333333       0.014
   0.73333333 -0.60000000 -0.06666667       0.014
   0.66666667 -0.53333333 -0.00000000       0.007
   0.00000000  0.13333333  0.80000000       0.007
   0.93333333 -0.80000000 -0.13333333       0.014
   0.86666667 -0.73333333 -0.06666667       0.014
   0.80000000 -0.66666667  0.00000000       0.007
   1.00000000 -0.86666667 -0.06666667       0.007
   0.93333333 -0.80000000 -0.00000000       0.007
  -0.00000000  0.26666667  0.53333333       0.007
  -0.06666667  0.33333333  0.60000000       0.014
   0.86666667 -0.60000000 -0.33333333       0.014
   0.80000000 -0.53333333 -0.26666667       0.014
  -0.00000000  0.26666667  0.66666667       0.007
   0.93333333 -0.66666667 -0.26666667       0.014
   0.86666667 -0.60000000 -0.20000000       0.014
   0.80000000 -0.53333333 -0.13333333       0.014
   0.73333333 -0.46666667 -0.06666667       0.014
   0.66666667 -0.40000000 -0.00000000       0.007
   1.00000000 -0.73333333 -0.20000000       0.007
   0.93333333 -0.66666667 -0.13333333       0.014
   0.86666667 -0.60000000 -0.06666667       0.014
   0.80000000 -0.53333333  0.00000000       0.007
   1.00000000 -0.73333333 -0.06666667       0.007
   0.93333333 -0.66666667  0.00000000       0.007
   1.00000000 -0.60000000 -0.20000000       0.007
   0.93333333 -0.53333333 -0.13333333       0.014
   1.00000000 -0.60000000 -0.06666667       0.007
   0.93333333 -0.53333333  0.00000000       0.007
 
 k-points in reciprocal lattice and weights: k-points                                
   0.00000000  0.00000000  0.00000000       0.000
   0.06666667  0.00000000  0.00000000       0.002
   0.13333333  0.00000000  0.00000000       0.002
   0.20000000  0.00000000  0.00000000       0.002
   0.26666667  0.00000000  0.00000000       0.002
   0.33333333  0.00000000  0.00000000       0.002
   0.40000000  0.00000000  0.00000000       0.002
   0.46666667  0.00000000  0.00000000       0.002
   0.06666667  0.06666667  0.00000000       0.002
   0.13333333  0.06666667  0.00000000       0.007
   0.20000000  0.06666667  0.00000000       0.007
   0.26666667  0.06666667  0.00000000       0.007
   0.33333333  0.06666667  0.00000000       0.007
   0.40000000  0.06666667  0.00000000       0.007
   0.46666667  0.06666667  0.00000000       0.007
  -0.46666667  0.06666667  0.00000000       0.007
  -0.40000000  0.06666667  0.00000000       0.007
  -0.33333333  0.06666667  0.00000000       0.007
  -0.26666667  0.06666667  0.00000000       0.007
  -0.20000000  0.06666667  0.00000000       0.007
  -0.13333333  0.06666667  0.00000000       0.007
  -0.06666667  0.06666667  0.00000000       0.004
   0.13333333  0.13333333  0.00000000       0.002
   0.20000000  0.13333333  0.00000000       0.007
   0.26666667  0.13333333  0.00000000       0.007
   0.33333333  0.13333333  0.00000000       0.007
   0.40000000  0.13333333  0.00000000       0.007
   0.46666667  0.13333333  0.00000000       0.007
  -0.46666667  0.13333333  0.00000000       0.007
  -0.40000000  0.13333333  0.00000000       0.007
  -0.33333333  0.13333333  0.00000000       0.007
  -0.26666667  0.13333333  0.00000000       0.007
  -0.20000000  0.13333333  0.00000000       0.007
  -0.13333333  0.13333333  0.00000000       0.004
   0.20000000  0.20000000  0.00000000       0.002
   0.26666667  0.20000000  0.00000000       0.007
   0.33333333  0.20000000  0.00000000       0.007
   0.40000000  0.20000000  0.00000000       0.007
   0.46666667  0.20000000  0.00000000       0.007
  -0.46666667  0.20000000  0.00000000       0.007
  -0.40000000  0.20000000  0.00000000       0.007
  -0.33333333  0.20000000  0.00000000       0.007
  -0.26666667  0.20000000  0.00000000       0.007
  -0.20000000  0.20000000  0.00000000       0.004
   0.26666667  0.26666667  0.00000000       0.002
   0.33333333  0.26666667  0.00000000       0.007
   0.40000000  0.26666667  0.00000000       0.007
   0.46666667  0.26666667  0.00000000       0.007
  -0.46666667  0.26666667  0.00000000       0.007
  -0.40000000  0.26666667  0.00000000       0.007
  -0.33333333  0.26666667  0.00000000       0.007
  -0.26666667  0.26666667  0.00000000       0.004
   0.33333333  0.33333333  0.00000000       0.002
   0.40000000  0.33333333  0.00000000       0.007
   0.46666667  0.33333333  0.00000000       0.007
  -0.46666667  0.33333333  0.00000000       0.007
  -0.40000000  0.33333333  0.00000000       0.007
  -0.33333333  0.33333333  0.00000000       0.004
   0.40000000  0.40000000  0.00000000       0.002
   0.46666667  0.40000000  0.00000000       0.007
  -0.46666667  0.40000000  0.00000000       0.007
  -0.40000000  0.40000000  0.00000000       0.004
   0.46666667  0.46666667  0.00000000       0.002
  -0.46666667  0.46666667  0.00000000       0.004
   0.20000000  0.13333333  0.06666667       0.007
   0.26666667  0.13333333  0.06666667       0.014
   0.33333333  0.13333333  0.06666667       0.014
   0.40000000  0.13333333  0.06666667       0.014
   0.46666667  0.13333333  0.06666667       0.014
  -0.46666667  0.13333333  0.06666667       0.014
   0.26666667  0.20000000  0.06666667       0.007
   0.33333333  0.20000000  0.06666667       0.014
   0.40000000  0.20000000  0.06666667       0.014
   0.46666667  0.20000000  0.06666667       0.014
  -0.46666667  0.20000000  0.06666667       0.014
  -0.40000000  0.20000000  0.06666667       0.014
  -0.33333333  0.20000000  0.06666667       0.014
  -0.26666667  0.20000000  0.06666667       0.014
  -0.20000000  0.20000000  0.06666667       0.014
  -0.13333333  0.20000000  0.06666667       0.007
   0.33333333  0.26666667  0.06666667       0.007
   0.40000000  0.26666667  0.06666667       0.014
   0.46666667  0.26666667  0.06666667       0.014
  -0.46666667  0.26666667  0.06666667       0.014
  -0.40000000  0.26666667  0.06666667       0.014
  -0.33333333  0.26666667  0.06666667       0.014
  -0.26666667  0.26666667  0.06666667       0.014
  -0.20000000  0.26666667  0.06666667       0.007
   0.40000000  0.33333333  0.06666667       0.007
   0.46666667  0.33333333  0.06666667       0.014
  -0.46666667  0.33333333  0.06666667       0.014
  -0.40000000  0.33333333  0.06666667       0.014
  -0.33333333  0.33333333  0.06666667       0.014
  -0.26666667  0.33333333  0.06666667       0.007
   0.46666667  0.40000000  0.06666667       0.007
  -0.46666667  0.40000000  0.06666667       0.014
  -0.40000000  0.40000000  0.06666667       0.014
  -0.33333333  0.40000000  0.06666667       0.007
  -0.46666667  0.46666667  0.06666667       0.007
  -0.40000000  0.46666667  0.06666667       0.007
   0.40000000  0.26666667  0.13333333       0.007
   0.46666667  0.26666667  0.13333333       0.014
  -0.46666667  0.26666667  0.13333333       0.014
  -0.40000000  0.26666667  0.13333333       0.014
   0.46666667  0.33333333  0.13333333       0.007
  -0.46666667  0.33333333  0.13333333       0.014
  -0.40000000  0.33333333  0.13333333       0.014
  -0.33333333  0.33333333  0.13333333       0.014
  -0.26666667  0.33333333  0.13333333       0.014
  -0.20000000  0.33333333  0.13333333       0.007
  -0.46666667  0.40000000  0.13333333       0.007
  -0.40000000  0.40000000  0.13333333       0.014
  -0.33333333  0.40000000  0.13333333       0.014
  -0.26666667  0.40000000  0.13333333       0.007
  -0.40000000  0.46666667  0.13333333       0.007
  -0.33333333  0.46666667  0.13333333       0.007
  -0.40000000  0.40000000  0.20000000       0.007
  -0.33333333  0.40000000  0.20000000       0.014
  -0.33333333  0.46666667  0.20000000       0.007
  -0.26666667  0.46666667  0.20000000       0.007
 
 position of ions in fractional coordinates (direct lattice) 
   0.87500000  0.87500000  0.87500000
   0.12500000  0.12500000  0.12500000
 
 position of ions in cartesian coordinates  (Angst):
   5.07500000  5.07500000  5.07500000
   0.72500000  0.72500000  0.72500000
 


--------------------------------------------------------------------------------------------------------


 k-point  1 :   0.0000 0.0000 0.0000  plane waves:     113
 k-point  2 :   0.0667 0.0000 0.0000  plane waves:     113
 k-point  3 :   0.1333 0.0000 0.0000  plane waves:     116
 k-point  4 :   0.2000 0.0000 0.0000  plane waves:     110
 k-point  5 :   0.2667 0.0000 0.0000  plane waves:     113
 k-point  6 :   0.3333 0.0000 0.0000  plane waves:     111
 k-point  7 :   0.4000 0.0000 0.0000  plane waves:     114
 k-point  8 :   0.4667 0.0000 0.0000  plane waves:     108
 k-point  9 :   0.0667 0.0667 0.0000  plane waves:     113
 k-point 10 :   0.1333 0.0667 0.0000  plane waves:     114
 k-point 11 :   0.2000 0.0667 0.0000  plane waves:     116
 k-point 12 :   0.2667 0.0667 0.0000  plane waves:     112
 k-point 13 :   0.3333 0.0667 0.0000  plane waves:     109
 k-point 14 :   0.4000 0.0667 0.0000  plane waves:     110
 k-point 15 :   0.4667 0.0667 0.0000  plane waves:     114
 k-point 16 :  -0.4667 0.0667 0.0000  plane waves:     112
 k-point 17 :  -0.4000 0.0667 0.0000  plane waves:     110
 k-point 18 :  -0.3333 0.0667 0.0000  plane waves:     111
 k-point 19 :  -0.2667 0.0667 0.0000  plane waves:     111
 k-point 20 :  -0.2000 0.0667 0.0000  plane waves:     113
 k-point 21 :  -0.1333 0.0667 0.0000  plane waves:     116
 k-point 22 :  -0.0667 0.0667 0.0000  plane waves:     113
 k-point 23 :   0.1333 0.1333 0.0000  plane waves:     117
 k-point 24 :   0.2000 0.1333 0.0000  plane waves:     115
 k-point 25 :   0.2667 0.1333 0.0000  plane waves:     113
 k-point 26 :   0.3333 0.1333 0.0000  plane waves:     110
 k-point 27 :   0.4000 0.1333 0.0000  plane waves:     112
 k-point 28 :   0.4667 0.1333 0.0000  plane waves:     110
 k-point 29 :  -0.4667 0.1333 0.0000  plane waves:     112
 k-point 30 :  -0.4000 0.1333 0.0000  plane waves:     109
 k-point 31 :  -0.3333 0.1333 0.0000  plane waves:     112
 k-point 32 :  -0.2667 0.1333 0.0000  plane waves:     112
 k-point 33 :  -0.2000 0.1333 0.0000  plane waves:     111
 k-point 34 :  -0.1333 0.1333 0.0000  plane waves:     117
 k-point 35 :   0.2000 0.2000 0.0000  plane waves:     113
 k-point 36 :   0.2667 0.2000 0.0000  plane waves:     114
 k-point 37 :   0.3333 0.2000 0.0000  plane waves:     114
 k-point 38 :   0.4000 0.2000 0.0000  plane waves:     113
 k-point 39 :   0.4667 0.2000 0.0000  plane waves:     111
 k-point 40 :  -0.4667 0.2000 0.0000  plane waves:     112
 k-point 41 :  -0.4000 0.2000 0.0000  plane waves:     109
 k-point 42 :  -0.3333 0.2000 0.0000  plane waves:     109
 k-point 43 :  -0.2667 0.2000 0.0000  plane waves:     113
 k-point 44 :  -0.2000 0.2000 0.0000  plane waves:     107
 k-point 45 :   0.2667 0.2667 0.0000  plane waves:     113
 k-point 46 :   0.3333 0.2667 0.0000  plane waves:     113
 k-point 47 :   0.4000 0.2667 0.0000  plane waves:     113
 k-point 48 :   0.4667 0.2667 0.0000  plane waves:     108
 k-point 49 :  -0.4667 0.2667 0.0000  plane waves:     108
 k-point 50 :  -0.4000 0.2667 0.0000  plane waves:     110
 k-point 51 :  -0.3333 0.2667 0.0000  plane waves:     107
 k-point 52 :  -0.2667 0.2667 0.0000  plane waves:     107
 k-point 53 :   0.3333 0.3333 0.0000  plane waves:     113
 k-point 54 :   0.4000 0.3333 0.0000  plane waves:     111
 k-point 55 :   0.4667 0.3333 0.0000  plane waves:     110
 k-point 56 :  -0.4667 0.3333 0.0000  plane waves:     108
 k-point 57 :  -0.4000 0.3333 0.0000  plane waves:     108
 k-point 58 :  -0.3333 0.3333 0.0000  plane waves:     108
 k-point 59 :   0.4000 0.4000 0.0000  plane waves:     112
 k-point 60 :   0.4667 0.4000 0.0000  plane waves:     113
 k-point 61 :  -0.4667 0.4000 0.0000  plane waves:     110
 k-point 62 :  -0.4000 0.4000 0.0000  plane waves:     110
 k-point 63 :   0.4667 0.4667 0.0000  plane waves:     116
 k-point 64 :  -0.4667 0.4667 0.0000  plane waves:     114
 k-point 65 :   0.2000 0.1333 0.0667  plane waves:     116
 k-point 66 :   0.2667 0.1333 0.0667  plane waves:     114
 k-point 67 :   0.3333 0.1333 0.0667  plane waves:     107
 k-point 68 :   0.4000 0.1333 0.0667  plane waves:     109
 k-point 69 :   0.4667 0.1333 0.0667  plane waves:     109
 k-point 70 :  -0.4667 0.1333 0.0667  plane waves:     112
 k-point 71 :   0.2667 0.2000 0.0667  plane waves:     114
 k-point 72 :   0.3333 0.2000 0.0667  plane waves:     114
 k-point 73 :   0.4000 0.2000 0.0667  plane waves:     113
 k-point 74 :   0.4667 0.2000 0.0667  plane waves:     110
 k-point 75 :  -0.4667 0.2000 0.0667  plane waves:     112
 k-point 76 :  -0.4000 0.2000 0.0667  plane waves:     111
 k-point 77 :  -0.3333 0.2000 0.0667  plane waves:     109
 k-point 78 :  -0.2667 0.2000 0.0667  plane waves:     110
 k-point 79 :  -0.2000 0.2000 0.0667  plane waves:     111
 k-point 80 :  -0.1333 0.2000 0.0667  plane waves:     115
 k-point 81 :   0.3333 0.2667 0.0667  plane waves:     114
 k-point 82 :   0.4000 0.2667 0.0667  plane waves:     116
 k-point 83 :   0.4667 0.2667 0.0667  plane waves:     113
 k-point 84 :  -0.4667 0.2667 0.0667  plane waves:     110
 k-point 85 :  -0.4000 0.2667 0.0667  plane waves:     112
 k-point 86 :  -0.3333 0.2667 0.0667  plane waves:     111
 k-point 87 :  -0.2667 0.2667 0.0667  plane waves:     110
 k-point 88 :  -0.2000 0.2667 0.0667  plane waves:     110
 k-point 89 :   0.4000 0.3333 0.0667  plane waves:     112
 k-point 90 :   0.4667 0.3333 0.0667  plane waves:     109
 k-point 91 :  -0.4667 0.3333 0.0667  plane waves:     109
 k-point 92 :  -0.4000 0.3333 0.0667  plane waves:     107
 k-point 93 :  -0.3333 0.3333 0.0667  plane waves:     108
 k-point 94 :  -0.2667 0.3333 0.0667  plane waves:     110
 k-point 95 :   0.4667 0.4000 0.0667  plane waves:     112
 k-point 96 :  -0.4667 0.4000 0.0667  plane waves:     109
 k-point 97 :  -0.4000 0.4000 0.0667  plane waves:     106
 k-point 98 :  -0.3333 0.4000 0.0667  plane waves:     106
 k-point 99 :  -0.4667 0.4667 0.0667  plane waves:     112
 k-point ** :  -0.4000 0.4667 0.0667  plane waves:     106
 k-point ** :   0.4000 0.2667 0.1333  plane waves:     110
 k-point ** :   0.4667 0.2667 0.1333  plane waves:     113
 k-point ** :  -0.4667 0.2667 0.1333  plane waves:     112
 k-point ** :  -0.4000 0.2667 0.1333  plane waves:     113
 k-point ** :   0.4667 0.3333 0.1333  plane waves:     110
 k-point ** :  -0.4667 0.3333 0.1333  plane waves:     108
 k-point ** :  -0.4000 0.3333 0.1333  plane waves:     109
 k-point ** :  -0.3333 0.3333 0.1333  plane waves:     111
 k-point ** :  -0.2667 0.3333 0.1333  plane waves:     110
 k-point ** :  -0.2000 0.3333 0.1333  plane waves:     112
 k-point ** :  -0.4667 0.4000 0.1333  plane waves:     107
 k-point ** :  -0.4000 0.4000 0.1333  plane waves:     107
 k-point ** :  -0.3333 0.4000 0.1333  plane waves:     108
 k-point ** :  -0.2667 0.4000 0.1333  plane waves:     110
 k-point ** :  -0.4000 0.4667 0.1333  plane waves:     108
 k-point ** :  -0.3333 0.4667 0.1333  plane waves:     106
 k-point ** :  -0.4000 0.4000 0.2000  plane waves:     109
 k-point ** :  -0.3333 0.4000 0.2000  plane waves:     110
 k-point ** :  -0.3333 0.4667 0.2000  plane waves:     108
 k-point ** :  -0.2667 0.4667 0.2000  plane waves:     108

 maximum and minimum number of plane-waves per node :       117      106

 maximum number of plane-waves:       117
 maximum index in each direction: 
   IXMAX=    3   IYMAX=    3   IZMAX=    3
   IXMIN=   -3   IYMIN=   -3   IZMIN=   -3

 WARNING: aliasing errors must be expected set NGX to  14 to avoid them
 WARNING: aliasing errors must be expected set NGY to  14 to avoid them
 WARNING: aliasing errors must be expected set NGZ to  14 to avoid them
 aliasing errors are usually negligible using standard VASP settings
 and one can safely disregard these warnings

 serial   3D FFT for wavefunctions
 parallel 3D FFT for charge:
    minimum data exchange during FFTs selected (reduces bandwidth)


 total amount of memory used by VASP on root node    31378. kBytes
========================================================================

   base      :      30000. kBytes
   nonl-proj :        987. kBytes
   fftplans  :         27. kBytes
   grid      :         82. kBytes
   one-center:          6. kBytes
   wavefun   :        276. kBytes
 
     INWAV:  cpu time    0.0010: real time    0.0003
 Broyden mixing: mesh for mixing (old mesh)
   NGX =  7   NGY =  7   NGZ =  7
  (NGX  = 20   NGY  = 20   NGZ  = 20)
  gives a total of    343 points

 initial charge density was supplied:
 charge density of overlapping atoms calculated
 number of electron       8.0000000 magnetization 
 keeping initial charge density in first step


--------------------------------------------------------------------------------------------------------


 Maximum index for augmentation-charges          154 (set IRDMAX)


--------------------------------------------------------------------------------------------------------


 First call to EWALD:  gamma=   0.485
 Maximum number of real-space cells 3x 3x 3
 Maximum number of reciprocal cells 3x 3x 3

 FEWALD executed in parallel
    FEWALD:  cpu time    0.0020: real time    0.0021


----------------------------------------- Iteration    1(   1)  ---------------------------------------


    POTLOK:  cpu time    0.0020: real time    0.0019
    SETDIJ:  cpu time    0.0010: real time    0.0015
     EDDAV:  cpu time    0.4369: real time    0.4360
       DOS:  cpu time    0.0000: real time    0.0007
    --------------------------------------------
      LOOP:  cpu time    0.4409: real time    0.5250

 eigenvalue-minimisations  :  4928
 total energy-change (2. order) :-0.9660977E+01  (-0.1233775E+03)
 number of electron       8.0000000 magnetization 
 augmentation part        8.0000000 magnetization 

 Free energy of the ion-electron system (eV)
  ---------------------------------------------------
  alpha Z        PSCENC =         2.76051321
  Ewald energy   TEWEN  =      -213.98274834
  -Hartree energ DENC   =       -14.16697610
  -exchange      EXHF   =         0.00000000
  -V(xc)+E(xc)   XCENC  =       -19.33180480
  PAW double counting   =        65.95520812      -30.76852678
  entropy T*S    EENTRO =        -0.00000000
  eigenvalues    EBANDS =        -6.01779252
  atomic energy  EATOM  =       205.89114989
  Solvation  Ediel_sol  =         0.00000000
  ---------------------------------------------------
  free energy    TOTEN  =        -9.66097732 eV

  energy without entropy =       -9.66097732  energy(sigma->0) =       -9.66097732


--------------------------------------------------------------------------------------------------------




----------------------------------------- Iteration    1(   2)  ---------------------------------------


     EDDAV:  cpu time    0.4839: real time    0.4842
       DOS:  cpu time    0.0010: real time    0.0005
    --------------------------------------------
      LOOP:  cpu time    0.4859: real time    0.4992

 eigenvalue-minimisations  :  5136
 total energy-change (2. order) :-0.8555136E+00  (-0.8555136E+00)
 number of electron       8.0000000 magnetization 
 augmentation part        8.0000000 magnetization 

 Free energy of the ion-electron system (eV)
  ---------------------------------------------------
  alpha Z        PSCENC =         2.76051321
  Ewald energy   TEWEN  =      -213.98274834
  -Hartree energ DENC   =       -14.16697610
  -exchange      EXHF   =         0.00000000
  -V(xc)+E(xc)   XCENC  =       -19.33180480
  PAW double counting   =        65.95520812      -30.76852678
  entropy T*S    EENTRO =        -0.00000000
  eigenvalues    EBANDS =        -6.87330613
  atomic energy  EATOM  =       205.89114989
  Solvation  Ediel_sol  =         0.00000000
  ---------------------------------------------------
  free energy    TOTEN  =       -10.51649092 eV

  energy without entropy =      -10.51649092  energy(sigma->0) =      -10.51649092


--------------------------------------------------------------------------------------------------------




----------------------------------------- Iteration    1(   3)  ---------------------------------------


     EDDAV:  cpu time    0.5649: real time    0.5648
       DOS:  cpu time    0.0000: real time    0.0005
    --------------------------------------------
      LOOP:  cpu time    0.5649: real time    0.5696

 eigenvalue-minimisations  :  5584
 total energy-change (2. order) :-0.7593375E-03  (-0.7593375E-03)
 number of electron       8.0000000 magnetization 
 augmentation part        8.0000000 magnetization 

 Free energy of the ion-electron system (eV)
  ---------------------------------------------------
  alpha Z        PSCENC =         2.76051321
  Ewald energy   TEWEN  =      -213.98274834
  -Hartree energ DENC   =       -14.16697610
  -exchange      EXHF   =         0.00000000
  -V(xc)+E(xc)   XCENC  =       -19.33180480
  PAW double counting   =        65.95520812      -30.76852678
  entropy T*S    EENTRO =        -0.00000000
  eigenvalues    EBANDS =        -6.87406546
  atomic energy  EATOM  =       205.89114989
  Solvation  Ediel_sol  =         0.00000000
  ---------------------------------------------------
  free energy    TOTEN  =       -10.51725026 eV

  energy without entropy =      -10.51725026  energy(sigma->0) =      -10.51725026


--------------------------------------------------------------------------------------------------------




----------------------------------------- Iteration    1(   4)  ---------------------------------------


     EDDAV:  cpu time    0.5309: real time    0.5305
       DOS:  cpu time    0.0000: real time    0.0005
    --------------------------------------------
      LOOP:  cpu time    0.5319: real time    0.5572

 eigenvalue-minimisations  :  5376
 total energy-change (2. order) :-0.1773273E-06  (-0.1773256E-06)
 number of electron       8.0000000 magnetization 
 augmentation part        8.0000000 magnetization 

 Free energy of the ion-electron system (eV)
  ---------------------------------------------------
  alpha Z        PSCENC =         2.76051321
  Ewald energy   TEWEN  =      -213.98274834
  -Hartree energ DENC   =       -14.16697610
  -exchange      EXHF   =         0.00000000
  -V(xc)+E(xc)   XCENC  =       -19.33180480
  PAW double counting   =        65.95520812      -30.76852678
  entropy T*S    EENTRO =        -0.00000000
  eigenvalues    EBANDS =        -6.87406564
  atomic energy  EATOM  =       205.89114989
  Solvation  Ediel_sol  =         0.00000000
  ---------------------------------------------------
  free energy    TOTEN  =       -10.51725044 eV

  energy without entropy =      -10.51725044  energy(sigma->0) =      -10.51725044


--------------------------------------------------------------------------------------------------------




----------------------------------------- Iteration    1(   5)  ---------------------------------------


     EDDAV:  cpu time    0.5449: real time    0.5455
       DOS:  cpu time    0.0010: real time    0.0005
    CHARGE:  cpu time    0.0020: real time    0.0022
    MIXING:  cpu time    0.0000: real time    0.0004
    --------------------------------------------
      LOOP:  cpu time    0.5489: real time    0.5529

 eigenvalue-minimisations  :  5472
 total energy-change (2. order) :-0.2785328E-11  (-0.2282850E-11)
 number of electron       8.0000000 magnetization 
 augmentation part       -0.4664683 magnetization 

 Broyden mixing:
  rms(total) = 0.24754E+00    rms(broyden)= 0.24656E+00
  rms(prec ) = 0.67473E+00
  weight for this iteration     100.00

 Free energy of the ion-electron system (eV)
  ---------------------------------------------------
  alpha Z        PSCENC =         2.76051321
  Ewald energy   TEWEN  =      -213.98274834
  -Hartree energ DENC   =       -14.16697610
  -exchange      EXHF   =         0.00000000
  -V(xc)+E(xc)   XCENC  =       -19.33180480
  PAW double counting   =        65.95520812      -30.76852678
  entropy T*S    EENTRO =        -0.00000000
  eigenvalues    EBANDS =        -6.87406564
  atomic energy  EATOM  =       205.89114989
  Solvation  Ediel_sol  =         0.00000000
  ---------------------------------------------------
  free energy    TOTEN  =       -10.51725044 eV

  energy without entropy =      -10.51725044  energy(sigma->0) =      -10.51725044


--------------------------------------------------------------------------------------------------------




----------------------------------------- Iteration    1(   6)  ---------------------------------------


    POTLOK:  cpu time    0.0010: real time    0.0014
    SETDIJ:  cpu time    0.0010: real time    0.0014
     EDDAV:  cpu time    0.4379: real time    0.4634
       DOS:  cpu time    0.0000: real time    0.0005
    CHARGE:  cpu time    0.0020: real time    0.0020
    MIXING:  cpu time    0.0010: real time    0.0003
    --------------------------------------------
      LOOP:  cpu time    0.4439: real time    0.4783

 eigenvalue-minimisations  :  4736
 total energy-change (2. order) : 0.4915373E-01  (-0.2155602E-02)
 number of electron       8.0000000 magnetization 
 augmentation part       -0.4636532 magnetization 

 Broyden mixing:
  rms(total) = 0.15118E+00    rms(broyden)= 0.15110E+00
  rms(prec ) = 0.41462E+00
  weight for this iteration     100.00

 eigenvalues of (default mixing * dielectric matrix)
  average eigenvalue GAMMA=   2.5700
  2.5700

 Free energy of the ion-electron system (eV)
  ---------------------------------------------------
  alpha Z        PSCENC =         2.76051321
  Ewald energy   TEWEN  =      -213.98274834
  -Hartree energ DENC   =       -15.22214981
  -exchange      EXHF   =         0.00000000
  -V(xc)+E(xc)   XCENC  =       -19.15706336
  PAW double counting   =        68.05463554      -32.90176246
  entropy T*S    EENTRO =        -0.00000000
  eigenvalues    EBANDS =        -5.91067138
  atomic energy  EATOM  =       205.89114989
  Solvation  Ediel_sol  =         0.00000000
  ---------------------------------------------------
  free energy    TOTEN  =       -10.46809671 eV

  energy without entropy =      -10.46809671  energy(sigma->0) =      -10.46809671


--------------------------------------------------------------------------------------------------------




----------------------------------------- Iteration    1(   7)  ---------------------------------------


    POTLOK:  cpu time    0.0010: real time    0.0013
    SETDIJ:  cpu time    0.0020: real time    0.0013
     EDDAV:  cpu time    0.5099: real time    0.5112
       DOS:  cpu time    0.0000: real time    0.0005
    CHARGE:  cpu time    0.0020: real time    0.0020
    MIXING:  cpu time    0.0010: real time    0.0002
    --------------------------------------------
      LOOP:  cpu time    0.5169: real time    0.5209

 eigenvalue-minimisations  :  5264
 total energy-change (2. order) : 0.3136551E-01  (-0.5491438E-02)
 number of electron       8.0000000 magnetization 
 augmentation part       -0.4608166 magnetization 

 Broyden mixing:
  rms(total) = 0.96409E-02    rms(broyden)= 0.95001E-02
  rms(prec ) = 0.24080E-01
  weight for this iteration     100.00

 eigenvalues of (default mixing * dielectric matrix)
  average eigenvalue GAMMA=   2.5409
  2.5409  2.5409

 Free energy of the ion-electron system (eV)
  ---------------------------------------------------
  alpha Z        PSCENC =         2.76051321
  Ewald energy   TEWEN  =      -213.98274834
  -Hartree energ DENC   =       -17.15857744
  -exchange      EXHF   =         0.00000000
  -V(xc)+E(xc)   XCENC  =       -18.82051909
  PAW double counting   =        70.86769016      -35.75559332
  entropy T*S    EENTRO =        -0.00000000
  eigenvalues    EBANDS =        -4.23864627
  atomic energy  EATOM  =       205.89114989
  Solvation  Ediel_sol  =         0.00000000
  ---------------------------------------------------
  free energy    TOTEN  =       -10.43673120 eV

  energy without entropy =      -10.43673120  energy(sigma->0) =      -10.43673120


--------------------------------------------------------------------------------------------------------




----------------------------------------- Iteration    1(   8)  ---------------------------------------


    POTLOK:  cpu time    0.0010: real time    0.0013
    SETDIJ:  cpu time    0.0010: real time    0.0013
     EDDAV:  cpu time    0.4259: real time    0.4261
       DOS:  cpu time    0.0010: real time    0.0005
    CHARGE:  cpu time    0.0010: real time    0.0020
    MIXING:  cpu time    0.0010: real time    0.0002
    --------------------------------------------
      LOOP:  cpu time    0.4319: real time    0.4361

 eigenvalue-minimisations  :  4704
 total energy-change (2. order) :-0.1103903E-02  (-0.1520006E-03)
 number of electron       8.0000000 magnetization 
 augmentation part       -0.4610308 magnetization 

 Broyden mixing:
  rms(total) = 0.28042E-02    rms(broyden)= 0.27852E-02
  rms(prec ) = 0.93216E-02
  weight for this iteration     100.00

 eigenvalues of (default mixing * dielectric matrix)
  average eigenvalue GAMMA=   2.2196
  1.2227  3.0639  2.3723

 Free energy of the ion-electron system (eV)
  ---------------------------------------------------
  alpha Z        PSCENC =         2.76051321
  Ewald energy   TEWEN  =      -213.98274834
  -Hartree energ DENC   =       -17.12770784
  -exchange      EXHF   =         0.00000000
  -V(xc)+E(xc)   XCENC  =       -18.82274123
  PAW double counting   =        70.31061443      -35.18298886
  entropy T*S    EENTRO =        -0.00000000
  eigenvalues    EBANDS =        -4.28392637
  atomic energy  EATOM  =       205.89114989
  Solvation  Ediel_sol  =         0.00000000
  ---------------------------------------------------
  free energy    TOTEN  =       -10.43783510 eV

  energy without entropy =      -10.43783510  energy(sigma->0) =      -10.43783510


--------------------------------------------------------------------------------------------------------




----------------------------------------- Iteration    1(   9)  ---------------------------------------


    POTLOK:  cpu time    0.0000: real time    0.0012
    SETDIJ:  cpu time    0.0020: real time    0.0013
     EDDAV:  cpu time    0.5439: real time    0.5433
       DOS:  cpu time    0.0000: real time    0.0006
    CHARGE:  cpu time    0.0020: real time    0.0019
    MIXING:  cpu time    0.0000: real time    0.0002
    --------------------------------------------
      LOOP:  cpu time    0.5489: real time    0.5540

 eigenvalue-minimisations  :  5520
 total energy-change (2. order) :-0.1565545E-03  (-0.1817017E-04)
 number of electron       8.0000000 magnetization 
 augmentation part       -0.4610340 magnetization 

 Broyden mixing:
  rms(total) = 0.12188E-02    rms(broyden)= 0.12161E-02
  rms(prec ) = 0.30782E-02
  weight for this iteration     100.00

 eigenvalues of (default mixing * dielectric matrix)
  average eigenvalue GAMMA=   2.3073
  0.9703  3.2691  2.4948  2.4948

 Free energy of the ion-electron system (eV)
  ---------------------------------------------------
  alpha Z        PSCENC =         2.76051321
  Ewald energy   TEWEN  =      -213.98274834
  -Hartree energ DENC   =       -17.18288789
  -exchange      EXHF   =         0.00000000
  -V(xc)+E(xc)   XCENC  =       -18.81313947
  PAW double counting   =        70.25525290      -35.12529043
  entropy T*S    EENTRO =        -0.00000000
  eigenvalues    EBANDS =        -4.24084153
  atomic energy  EATOM  =       205.89114989
  Solvation  Ediel_sol  =         0.00000000
  ---------------------------------------------------
  free energy    TOTEN  =       -10.43799165 eV

  energy without entropy =      -10.43799165  energy(sigma->0) =      -10.43799165


--------------------------------------------------------------------------------------------------------




----------------------------------------- Iteration    1(  10)  ---------------------------------------


    POTLOK:  cpu time    0.0000: real time    0.0013
    SETDIJ:  cpu time    0.0020: real time    0.0014
     EDDAV:  cpu time    0.4529: real time    0.4526
       DOS:  cpu time    0.0010: real time    0.0005
    CHARGE:  cpu time    0.0020: real time    0.0020
    MIXING:  cpu time    0.0000: real time    0.0002
    --------------------------------------------
      LOOP:  cpu time    0.4589: real time    0.4622

 eigenvalue-minimisations  :  4928
 total energy-change (2. order) :-0.5663121E-05  (-0.1807595E-05)
 number of electron       8.0000000 magnetization 
 augmentation part       -0.4609292 magnetization 

 Broyden mixing:
  rms(total) = 0.15999E-03    rms(broyden)= 0.15104E-03
  rms(prec ) = 0.47429E-03
  weight for this iteration     100.00

 eigenvalues of (default mixing * dielectric matrix)
  average eigenvalue GAMMA=   2.0893
  3.3442  2.6967  2.2404  0.9477  1.2176

 Free energy of the ion-electron system (eV)
  ---------------------------------------------------
  alpha Z        PSCENC =         2.76051321
  Ewald energy   TEWEN  =      -213.98274834
  -Hartree energ DENC   =       -17.19223337
  -exchange      EXHF   =         0.00000000
  -V(xc)+E(xc)   XCENC  =       -18.81335111
  PAW double counting   =        70.30229694      -35.17406667
  entropy T*S    EENTRO =        -0.00000000
  eigenvalues    EBANDS =        -4.22955786
  atomic energy  EATOM  =       205.89114989
  Solvation  Ediel_sol  =         0.00000000
  ---------------------------------------------------
  free energy    TOTEN  =       -10.43799732 eV

  energy without entropy =      -10.43799732  energy(sigma->0) =      -10.43799732


--------------------------------------------------------------------------------------------------------




----------------------------------------- Iteration    1(  11)  ---------------------------------------


    POTLOK:  cpu time    0.0000: real time    0.0012
    SETDIJ:  cpu time    0.0000: real time    0.0013
     EDDAV:  cpu time    0.5029: real time    0.5028
       DOS:  cpu time    0.0000: real time    0.0005
    CHARGE:  cpu time    0.0020: real time    0.0019
    MIXING:  cpu time    0.0000: real time    0.0002
    --------------------------------------------
      LOOP:  cpu time    0.5079: real time    0.5170

 eigenvalue-minimisations  :  5120
 total energy-change (2. order) : 0.1039788E-05  (-0.3509000E-07)
 number of electron       8.0000000 magnetization 
 augmentation part       -0.4609464 magnetization 

 Broyden mixing:
  rms(total) = 0.50868E-04    rms(broyden)= 0.31996E-04
  rms(prec ) = 0.55630E-04
  weight for this iteration     100.00
  WARNING: grid for Broyden might be to small

 eigenvalues of (default mixing * dielectric matrix)
  average eigenvalue GAMMA=   2.1386
  3.3644  2.7414  2.4944  2.2505  0.9903  0.9903

 Free energy of the ion-electron system (eV)
  ---------------------------------------------------
  alpha Z        PSCENC =         2.76051321
  Ewald energy   TEWEN  =      -213.98274834
  -Hartree energ DENC   =       -17.18973357
  -exchange      EXHF   =         0.00000000
  -V(xc)+E(xc)   XCENC  =       -18.81355793
  PAW double counting   =        70.28818868      -35.15950153
  entropy T*S    EENTRO =        -0.00000000
  eigenvalues    EBANDS =        -4.23230668
  atomic energy  EATOM  =       205.89114989
  Solvation  Ediel_sol  =         0.00000000
  ---------------------------------------------------
  free energy    TOTEN  =       -10.43799628 eV

  energy without entropy =      -10.43799628  energy(sigma->0) =      -10.43799628


--------------------------------------------------------------------------------------------------------




----------------------------------------- Iteration    1(  12)  ---------------------------------------


    POTLOK:  cpu time    0.0010: real time    0.0012
    SETDIJ:  cpu time    0.0020: real time    0.0013
     EDDAV:  cpu time    0.1980: real time    0.1983
       DOS:  cpu time    0.0010: real time    0.0006
    --------------------------------------------
      LOOP:  cpu time    0.2030: real time    0.2057

 eigenvalue-minimisations  :  2432
 total energy-change (2. order) : 0.3058321E-07  (-0.2502311E-08)
 number of electron       8.0000000 magnetization 
 augmentation part       -0.4609464 magnetization 

 Free energy of the ion-electron system (eV)
  ---------------------------------------------------
  alpha Z        PSCENC =         2.76051321
  Ewald energy   TEWEN  =      -213.98274834
  -Hartree energ DENC   =       -17.18980716
  -exchange      EXHF   =         0.00000000
  -V(xc)+E(xc)   XCENC  =       -18.81356232
  PAW double counting   =        70.28738456      -35.15862391
  entropy T*S    EENTRO =        -0.00000000
  eigenvalues    EBANDS =        -4.23230218
  atomic energy  EATOM  =       205.89114989
  Solvation  Ediel_sol  =         0.00000000
  ---------------------------------------------------
  free energy    TOTEN  =       -10.43799625 eV

  energy without entropy =      -10.43799625  energy(sigma->0) =      -10.43799625


--------------------------------------------------------------------------------------------------------




 average (electrostatic) potential at core
  the test charge radii are     0.9892
  (the norm of the test charge is              1.0000)
       1 -85.4320       2 -85.4320
 
 
 
 E-fermi :   4.5107     XC(G=0):  -8.6622     alpha+bet : -9.8341


 k-point     1 :       0.0000    0.0000    0.0000
  band No.  band energies     occupation 
      1      -6.7285      2.00000
      2       4.0782      2.00000
      3       4.0782      2.00000
      4       4.0815      2.00000
      5       5.2427      0.00000
      6       6.5585      0.00000
      7       6.5585      0.00000
      8       6.5600      0.00000
      9      11.2572      0.00000
     10      12.0609      0.00000
     11      12.0609      0.00000
     12      14.8587      0.00000
     13      14.8587      0.00000
     14      14.8591      0.00000
     15      18.2843      0.00000
     16      26.6303      0.00000

 k-point     2 :       0.0667    0.0000    0.0000
  band No.  band energies     occupation 
      1      -6.6791      2.00000
      2       3.3740      2.00000
      3       3.9999      2.00000
      4       4.0027      2.00000
      5       5.6499      0.00000
      6       6.6732      0.00000
      7       6.6746      0.00000
      8       6.7735      0.00000
      9      11.4785      0.00000
     10      11.8848      0.00000
     11      11.8849      0.00000
     12      14.6511      0.00000
     13      15.2119      0.00000
     14      15.2122      0.00000
     15      18.6611      0.00000
     16      25.1419      0.00000

 k-point     3 :       0.1333    0.0000    0.0000
  band No.  band energies     occupation 
      1      -6.5339      2.00000
      2       2.2546      2.00000
      3       3.8095      2.00000
      4       3.8121      2.00000
      5       5.7147      0.00000
      6       6.9521      0.00000
      7       6.9539      0.00000
      8       7.6056      0.00000
      9      11.5730      0.00000
     10      11.5733      0.00000
     11      12.0207      0.00000
     12      14.2641      0.00000
     13      16.0680      0.00000
     14      16.0685      0.00000
     15      19.5691      0.00000
     16      23.4325      0.00000

 k-point     4 :       0.2000    0.0000    0.0000
  band No.  band energies     occupation 
      1      -6.2942      2.00000
      2       1.1632      2.00000
      3       3.5892      2.00000
      4       3.5916      2.00000
      5       5.5427      0.00000
      6       7.2715      0.00000
      7       7.2734      0.00000
      8       8.7140      0.00000
      9      11.4722      0.00000
     10      11.4724      0.00000
     11      12.4928      0.00000
     12      14.2947      0.00000
     13      17.2621      0.00000
     14      17.2626      0.00000
     15      20.6202      0.00000
     16      22.0906      0.00000

 k-point     5 :       0.2667    0.0000    0.0000
  band No.  band energies     occupation 
      1      -5.9742      2.00000
      2       0.1135      2.00000
      3       3.3626      2.00000
      4       3.3651      2.00000
      5       5.3475      0.00000
      6       7.4744      0.00000
      7       7.4769      0.00000
      8       9.8618      0.00000
      9      11.6124      0.00000
     10      11.6128      0.00000
     11      12.4503      0.00000
     12      15.1331      0.00000
     13      18.3163      0.00000
     14      18.3170      0.00000
     15      20.3016      0.00000
     16      20.4803      0.00000

 k-point     6 :       0.3333    0.0000    0.0000
  band No.  band energies     occupation 
      1      -5.5886      2.00000
      2      -0.8301      2.00000
      3       3.1977      2.00000
      4       3.2001      2.00000
      5       5.1534      0.00000
      6       7.5639      0.00000
      7       7.5661      0.00000
      8      10.8904      0.00000
      9      12.1891      0.00000
     10      12.1893      0.00000
     11      12.3162      0.00000
     12      16.0382      0.00000
     13      18.0396      0.00000
     14      18.0400      0.00000
     15      19.4152      0.00000
     16      20.6462      0.00000

 k-point     7 :       0.4000    0.0000    0.0000
  band No.  band energies     occupation 
      1      -5.1886      2.00000
      2      -1.6114      2.00000
      3       3.0798      2.00000
      4       3.0822      2.00000
      5       5.0139      0.00000
      6       7.5439      0.00000
      7       7.5463      0.00000
      8      11.4467      0.00000
      9      12.7096      0.00000
     10      13.0074      0.00000
     11      13.0077      0.00000
     12      15.9287      0.00000
     13      16.6915      0.00000
     14      16.6915      0.00000
     15      19.8379      0.00000
     16      22.0575      0.00000

 k-point     8 :       0.4667    0.0000    0.0000
  band No.  band energies     occupation 
      1      -4.8927      2.00000
      2      -2.0923      2.00000
      3       3.0337      2.00000
      4       3.0357      2.00000
      5       4.9449      0.00000
      6       7.5374      0.00000
      7       7.5394      0.00000
      8      11.5021      0.00000
      9      13.7146      0.00000
     10      14.1130      0.00000
     11      14.1131      0.00000
     12      14.9821      0.00000
     13      15.3572      0.00000
     14      15.3576      0.00000
     15      21.3479      0.00000
     16      23.2091      0.00000

 k-point     9 :       0.0667    0.0667    0.0000
  band No.  band energies     occupation 
      1      -6.6626      2.00000
      2       3.3715      2.00000
      3       3.8468      2.00000
      4       3.8488      2.00000
      5       5.9317      0.00000
      6       6.4043      0.00000
      7       6.8717      0.00000
      8       6.8729      0.00000
      9      11.5481      0.00000
     10      11.5516      0.00000
     11      12.1375      0.00000
     12      14.9882      0.00000
     13      14.9884      0.00000
     14      15.2062      0.00000
     15      18.8101      0.00000
     16      25.0086      0.00000

 k-point    10 :       0.1333    0.0667    0.0000
  band No.  band energies     occupation 
      1      -6.5486      2.00000
      2       2.5188      2.00000
      3       3.6186      2.00000
      4       3.7053      2.00000
      5       6.1554      0.00000
      6       6.4516      0.00000
      7       7.2094      0.00000
      8       7.4650      0.00000
      9      11.1371      0.00000
     10      12.0033      0.00000
     11      12.0666      0.00000
     12      14.6808      0.00000
     13      15.4517      0.00000
     14      16.0130      0.00000
     15      19.5785      0.00000
     16      23.5449      0.00000

 k-point    11 :       0.2000    0.0667    0.0000
  band No.  band energies     occupation 
[...]
      5       5.5565      0.00000
      6       6.2399      0.00000
      7      11.6073      0.00000
      8      11.6624      0.00000
      9      13.4195      0.00000
     10      14.1878      0.00000
     11      15.6091      0.00000
     12      16.5664      0.00000
     13      18.0668      0.00000
     14      18.1227      0.00000
     15      20.4700      0.00000
     16      20.6190      0.00000

 k-point   101 :       0.4000    0.2667    0.1333
  band No.  band energies     occupation 
      1      -5.4710      2.00000
      2      -0.4148      2.00000
      3       1.6673      2.00000
      4       2.7230      2.00000
      5       6.5445      0.00000
      6       7.2060      0.00000
      7       8.3827      0.00000
      8       9.3955      0.00000
      9      11.6175      0.00000
     10      13.9776      0.00000
     11      14.1235      0.00000
     12      15.9839      0.00000
     13      17.2714      0.00000
     14      18.0515      0.00000
     15      19.2027      0.00000
     16      21.0443      0.00000

 k-point   102 :       0.4667    0.2667    0.1333
  band No.  band energies     occupation 
      1      -5.0904      2.00000
      2      -1.0747      2.00000
      3       1.3138      2.00000
      4       2.4940      2.00000
      5       6.7746      0.00000
      6       7.3875      0.00000
      7       8.3620      0.00000
      8       9.7422      0.00000
      9      12.1402      0.00000
     10      13.5788      0.00000
     11      15.0570      0.00000
     12      16.0315      0.00000
     13      17.2226      0.00000
     14      18.3173      0.00000
     15      19.4161      0.00000
     16      21.1709      0.00000

 k-point   103 :      -0.4667    0.2667    0.1333
  band No.  band energies     occupation 
      1      -4.6854      2.00000
      2      -1.7011      2.00000
      3       1.1132      2.00000
      4       2.3031      2.00000
      5       6.7965      0.00000
      6       7.4608      0.00000
      7       8.9147      0.00000
      8       9.9149      0.00000
      9      12.4910      0.00000
     10      13.0316      0.00000
     11      15.4729      0.00000
     12      16.1149      0.00000
     13      17.2969      0.00000
     14      18.6314      0.00000
     15      20.4842      0.00000
     16      20.8484      0.00000

 k-point   104 :      -0.4000    0.2667    0.1333
  band No.  band energies     occupation 
      1      -4.3778      2.00000
      2      -2.1339      2.00000
      3       1.0266      2.00000
      4       2.1912      2.00000
      5       6.7880      0.00000
      6       7.4064      0.00000
      7       9.5482      0.00000
      8      10.2380      0.00000
      9      11.3732      0.00000
     10      14.0337      0.00000
     11      15.1048      0.00000
     12      15.6308      0.00000
     13      17.8710      0.00000
     14      19.4197      0.00000
     15      20.1290      0.00000
     16      21.5557      0.00000

 k-point   105 :       0.4667    0.3333    0.1333
  band No.  band energies     occupation 
      1      -4.9335      2.00000
      2      -1.2070      2.00000
      3       1.3580      2.00000
      4       2.1113      2.00000
      5       6.3220      0.00000
      6       7.1425      0.00000
      7       8.6392      0.00000
      8      10.5849      0.00000
      9      12.6723      0.00000
     10      13.9114      0.00000
     11      15.2120      0.00000
     12      16.8281      0.00000
     13      17.0369      0.00000
     14      18.0585      0.00000
     15      19.0473      0.00000
     16      20.6887      0.00000

 k-point   106 :      -0.4667    0.3333    0.1333
  band No.  band energies     occupation 
      1      -4.5265      2.00000
      2      -1.7582      2.00000
      3       1.0478      2.00000
      4       1.9125      2.00000
      5       6.6195      0.00000
      6       7.6381      0.00000
      7       8.4124      0.00000
      8      10.8915      0.00000
      9      12.7575      0.00000
     10      13.3710      0.00000
     11      16.0601      0.00000
     12      16.4461      0.00000
     13      17.6688      0.00000
     14      17.9743      0.00000
     15      19.7727      0.00000
     16      21.0885      0.00000

 k-point   107 :      -0.4000    0.3333    0.1333
  band No.  band energies     occupation 
      1      -4.1598      2.00000
      2      -2.2166      2.00000
      3       0.8261      2.00000
      4       1.8180      2.00000
      5       6.7268      0.00000
      6       8.1094      0.00000
      7       8.6781      0.00000
      8      10.7497      0.00000
      9      11.7042      0.00000
     10      14.3245      0.00000
     11      15.2509      0.00000
     12      16.5444      0.00000
     13      18.1512      0.00000
     14      19.1160      0.00000
     15      20.3037      0.00000
     16      21.6021      0.00000

 k-point   108 :      -0.3333    0.3333    0.1333
  band No.  band energies     occupation 
      1      -4.0466      2.00000
      2      -2.3506      2.00000
      3       0.7079      2.00000
      4       1.8501      2.00000
      5       6.8609      0.00000
      6       7.9683      0.00000
      7       9.7466      0.00000
      8       9.9316      0.00000
      9      11.2549      0.00000
     10      13.9909      0.00000
     11      15.5534      0.00000
     12      16.5456      0.00000
     13      18.7279      0.00000
     14      19.5522      0.00000
     15      20.3327      0.00000
     16      20.7280      0.00000

 k-point   109 :      -0.2667    0.3333    0.1333
  band No.  band energies     occupation 
      1      -4.3006      2.00000
      2      -2.0460      2.00000
      3       0.7264      2.00000
      4       1.9999      2.00000
      5       7.0418      0.00000
      6       7.8295      0.00000
      7       8.9218      0.00000
      8      10.6869      0.00000
      9      11.4224      0.00000
     10      12.9797      0.00000
     11      16.5049      0.00000
     12      16.6035      0.00000
     13      18.2784      0.00000
     14      18.6161      0.00000
     15      19.8247      0.00000
     16      21.3246      0.00000

 k-point   110 :      -0.2000    0.3333    0.1333
  band No.  band energies     occupation 
      1      -4.6990      2.00000
      2      -1.5572      2.00000
      3       0.9140      2.00000
      4       2.2319      2.00000
      5       7.2209      0.00000
      6       7.4703      0.00000
      7       8.3324      0.00000
      8      10.4675      0.00000
      9      12.3165      0.00000
     10      12.5209      0.00000
     11      16.1268      0.00000
     12      16.9918      0.00000
     13      17.0524      0.00000
     14      18.4531      0.00000
     15      19.6035      0.00000
     16      21.0514      0.00000

 k-point   111 :      -0.4667    0.4000    0.1333
  band No.  band energies     occupation 
      1      -4.2961      2.00000
      2      -2.0099      2.00000
      3       1.1888      2.00000
      4       1.6328      2.00000
      5       6.2216      0.00000
      6       6.7404      0.00000
      7       9.4846      0.00000
      8      11.5864      0.00000
      9      13.2028      0.00000
     10      13.7625      0.00000
     11      15.8761      0.00000
     12      17.1187      0.00000
     13      17.1731      0.00000
     14      18.2812      0.00000
     15      19.4898      0.00000
     16      20.5644      0.00000

 k-point   112 :      -0.4000    0.4000    0.1333
  band No.  band energies     occupation 
      1      -3.8939      2.00000
      2      -2.4524      2.00000
      3       0.9041      2.00000
      4       1.5016      2.00000
      5       6.4867      0.00000
      6       7.4220      0.00000
      7       9.2516      0.00000
      8      11.1894      0.00000
      9      12.5628      0.00000
     10      14.4024      0.00000
     11      15.3770      0.00000
     12      17.1114      0.00000
     13      18.2919      0.00000
     14      18.6447      0.00000
     15      20.1089      0.00000
     16      21.0229      0.00000

 k-point   113 :      -0.3333    0.4000    0.1333
  band No.  band energies     occupation 
      1      -3.6845      2.00000
      2      -2.6655      2.00000
      3       0.6581      2.00000
      4       1.5576      2.00000
      5       6.6328      0.00000
      6       8.4988      0.00000
      7       9.0403      0.00000
      8      10.0960      0.00000
      9      12.3137      0.00000
     10      14.0185      0.00000
     11      15.7063      0.00000
     12      17.3248      0.00000
     13      18.5064      0.00000
     14      19.5619      0.00000
     15      20.3077      0.00000
     16      21.1071      0.00000

 k-point   114 :      -0.2667    0.4000    0.1333
  band No.  band energies     occupation 
      1      -3.9101      2.00000
      2      -2.4294      2.00000
      3       0.5760      2.00000
      4       1.7339      2.00000
      5       6.8308      0.00000
      6       8.7187      0.00000
      7       9.1026      0.00000
      8       9.7188      0.00000
      9      11.8799      0.00000
     10      13.2444      0.00000
     11      16.4001      0.00000
     12      17.5974      0.00000
     13      18.0318      0.00000
     14      19.1691      0.00000
     15      20.1136      0.00000
     16      21.5542      0.00000

 k-point   115 :      -0.4000    0.4667    0.1333
  band No.  band energies     occupation 
      1      -3.5816      2.00000
      2      -2.8098      2.00000
      3       1.1692      2.00000
      4       1.3145      2.00000
      5       6.2397      0.00000
      6       6.4109      0.00000
      7      10.4777      0.00000
      8      11.4235      0.00000
      9      13.4373      0.00000
     10      14.2611      0.00000
     11      15.5773      0.00000
     12      16.4059      0.00000
     13      18.2133      0.00000
     14      19.4356      0.00000
     15      19.6886      0.00000
     16      20.6713      0.00000

 k-point   116 :      -0.3333    0.4667    0.1333
  band No.  band energies     occupation 
      1      -3.3491      2.00000
      2      -3.0157      2.00000
      3       0.8659      2.00000
      4       1.3517      2.00000
      5       6.4411      0.00000
      6       7.3297      0.00000
      7      10.2130      0.00000
      8      10.3186      0.00000
      9      13.2657      0.00000
     10      14.0906      0.00000
     11      15.7006      0.00000
     12      16.6457      0.00000
     13      19.2067      0.00000
     14      19.7596      0.00000
     15      20.0835      0.00000
     16      20.1540      0.00000

 k-point   117 :      -0.4000    0.4000    0.2000
  band No.  band energies     occupation 
      1      -4.1206      2.00000
      2      -2.1934      2.00000
      3       0.8089      2.00000
      4       1.6171      2.00000
      5       7.3927      0.00000
      6       7.7387      0.00000
      7       8.1693      0.00000
      8      11.0233      0.00000
      9      12.1400      0.00000
     10      13.5331      0.00000
     11      16.2085      0.00000
     12      17.2986      0.00000
     13      17.7013      0.00000
     14      18.8787      0.00000
     15      19.2980      0.00000
     16      21.8144      0.00000

 k-point   118 :      -0.3333    0.4000    0.2000
  band No.  band energies     occupation 
      1      -3.7757      2.00000
      2      -2.5577      2.00000
      3       0.6977      2.00000
      4       1.4434      2.00000
      5       7.6360      0.00000
      6       7.8802      0.00000
      7       8.7006      0.00000
      8       9.8581      0.00000
      9      12.3240      0.00000
     10      14.2249      0.00000
     11      15.5309      0.00000
     12      17.1903      0.00000
     13      18.3212      0.00000
     14      19.6264      0.00000
     15      20.2432      0.00000
     16      21.2876      0.00000

 k-point   119 :      -0.3333    0.4667    0.2000
  band No.  band energies     occupation 
      1      -3.4913      2.00000
      2      -2.8405      2.00000
      3       0.8816      2.00000
      4       1.1529      2.00000
      5       7.4088      0.00000
      6       7.5488      0.00000
      7       9.0062      0.00000
      8      10.0172      0.00000
      9      13.2911      0.00000
     10      14.2321      0.00000
     11      15.6202      0.00000
     12      16.5086      0.00000
     13      19.0200      0.00000
     14      19.9926      0.00000
     15      20.1290      0.00000
     16      20.8840      0.00000

 k-point   120 :      -0.2667    0.4667    0.2000
  band No.  band energies     occupation 
      1      -3.4077      2.00000
      2      -2.9128      2.00000
      3       0.7657      2.00000
      4       1.1679      2.00000
      5       7.6385      0.00000
      6       8.6109      0.00000
      7       8.7469      0.00000
      8       8.8707      0.00000
      9      13.2604      0.00000
     10      14.1565      0.00000
     11      15.6620      0.00000
     12      16.5963      0.00000
     13      19.1120      0.00000
     14      19.8886      0.00000
     15      20.7549      0.00000
     16      21.0751      0.00000


--------------------------------------------------------------------------------------------------------


 soft charge-density along one line, spin component           1
         0         1         2         3         4         5         6         7         8         9
 total charge-density along one line
 
 pseudopotential strength for first ion, spin component:           1
 18.634   0.001  -0.000  -0.000  -0.000   0.000   0.000   0.000
  0.001   0.006   0.000   0.000   0.000  -0.000  -0.000  -0.000
 -0.000   0.000   4.200  -0.000  -0.000  -0.003   0.000   0.000
 -0.000   0.000  -0.000   4.200  -0.000   0.000  -0.003   0.000
 -0.000   0.000  -0.000  -0.000   4.200   0.000   0.000  -0.003
  0.000  -0.000  -0.003   0.000   0.000   0.005  -0.000  -0.000
  0.000  -0.000   0.000  -0.003   0.000  -0.000   0.005  -0.000
  0.000  -0.000   0.000   0.000  -0.003  -0.000  -0.000   0.005
 total augmentation occupancy for first ion, spin component:           1
  1.586   0.169   0.000   0.000   0.000  -0.000   0.000   0.000
  0.169   0.476  -0.000  -0.000  -0.000   0.000   0.000   0.000
 -0.000  -0.000   0.846   0.000   0.000  -1.010  -0.000   0.000
  0.000  -0.000   0.000   0.846   0.000   0.000  -1.010   0.000
  0.000   0.000   0.000   0.000   0.846  -0.000   0.000  -1.010
 -0.000   0.000  -1.010   0.000   0.000   1.261   0.000   0.000
  0.000   0.000   0.000  -1.010   0.000   0.000   1.261   0.000
  0.000   0.000   0.000   0.000  -1.010   0.000   0.000   1.261


------------------------ aborting loop because EDIFF is reached ----------------------------------------


    CHARGE:  cpu time    0.0010: real time    0.0020
    FORLOC:  cpu time    0.0000: real time    0.0001
    FORNL :  cpu time    0.0040: real time    0.0036
    STRESS:  cpu time    0.0480: real time    0.0478
    FORCOR:  cpu time    0.0020: real time    0.0012
    FORHAR:  cpu time    0.0000: real time    0.0004
    MIXING:  cpu time    0.0000: real time    0.0002
    OFIELD:  cpu time    0.0000: real time    0.0000

  FORCE on cell =-STRESS in cart. coord.  units (eV):
  Direction    XX          YY          ZZ          XY          YZ          ZX
  --------------------------------------------------------------------------------------
  Alpha Z     2.76051     2.76051     2.76051
  Ewald     -71.32761   -71.32761   -71.32761    -0.00000    -0.00000    -0.00000
  Hartree     5.72991     5.72991     5.72991     0.00000     0.00000     0.00000
  E(xc)     -24.23010   -24.23010   -24.23007    -0.00128    -0.00128    -0.00128
  Local     -31.74633   -31.74633   -31.74636     0.00081     0.00081     0.00081
  n-local    75.87383    77.24170    71.82002     1.90935    -1.07220     0.38291
  augment   -11.78619   -11.78619   -11.78619    -0.00042    -0.00042    -0.00042
  Kinetic    54.18573    52.91577    49.10956     3.58788    -0.98136     1.03403
  Fock        0.00000     0.00000     0.00000     0.00000     0.00000     0.00000
  -------------------------------------------------------------------------------------
  Total      -3.55094    -3.55094    -3.55094    -0.00000    -0.00000    -0.00000
  in kB    -116.63521  -116.63521  -116.63521    -0.00000    -0.00000    -0.00000
  external pressure =     -116.64 kB  Pullay stress =        0.00 kB


 VOLUME and BASIS-vectors are now :
 -----------------------------------------------------------------------------
  energy-cutoff  :      100.00
  volume of cell :       48.78
      direct lattice vectors                 reciprocal lattice vectors
     0.000000000  2.900000000  2.900000000    -0.172413793  0.172413793  0.172413793
     2.900000000  0.000000000  2.900000000     0.172413793 -0.172413793  0.172413793
     2.900000000  2.900000000  0.000000000     0.172413793  0.172413793 -0.172413793

  length of vectors
     4.101219331  4.101219331  4.101219331     0.298629450  0.298629450  0.298629450


 FORCES acting on ions
    electron-ion (+dipol)            ewald-force                    non-local-force                 convergence-correction
 -----------------------------------------------------------------------------------------------
   -.317E-03 -.317E-03 -.142E-03   0.103E-13 0.934E-14 0.112E-13   0.104E-16 0.659E-16 0.132E-15   -.902E-09 -.902E-09 -.128E-08
   0.317E-03 0.317E-03 0.142E-03   -.104E-13 -.931E-14 -.113E-13   0.208E-16 -.416E-16 -.729E-16   0.902E-09 0.902E-09 0.128E-08
 -----------------------------------------------------------------------------------------------
   0.772E-14 -.293E-13 0.782E-14   -.132E-15 0.271E-16 -.909E-16   0.312E-16 0.243E-16 0.590E-16   -.954E-15 0.158E-14 0.165E-14
 
 
 POSITION                                       TOTAL-FORCE (eV/Angst)
 -----------------------------------------------------------------------------------
      5.07500      5.07500      5.07500         0.000000     -0.000000     -0.000000
      0.72500      0.72500      0.72500        -0.000000      0.000000      0.000000
 -----------------------------------------------------------------------------------
    total drift:                                0.000000     -0.000000      0.000000


--------------------------------------------------------------------------------------------------------



  FREE ENERGIE OF THE ION-ELECTRON SYSTEM (eV)
  ---------------------------------------------------
  free  energy   TOTEN  =       -10.43799625 eV

  energy  without entropy=      -10.43799625  energy(sigma->0) =      -10.43799625
 


--------------------------------------------------------------------------------------------------------


    POTLOK:  cpu time    0.0020: real time    0.0026


--------------------------------------------------------------------------------------------------------


 writing wavefunctions
     LOOP+:  cpu time    5.7801: real time    6.0145
    4ORBIT:  cpu time    0.0000: real time    0.0000

 total amount of memory used by VASP on root node    31378. kBytes
========================================================================

   base      :      30000. kBytes
   nonl-proj :        987. kBytes
   fftplans  :         27. kBytes
   grid      :         82. kBytes
   one-center:          6. kBytes
   wavefun   :        276. kBytes
 
  
  
 General timing and accounting informations for this job:
 ========================================================
  
                  Total CPU time used (sec):        6.420
                            User time (sec):        6.109
                          System time (sec):        0.311
                         Elapsed time (sec):        7.443
  
                   Maximum memory used (kb):       70144.
                   Average memory used (kb):           0.
  
                          Minor page faults:        82913
                          Major page faults:            0
                 Voluntary context switches:         2777
