FCC Silicon                             
   3.56700000000000     
     0.510976    0.510976    0.000000
     0.000000    0.510976    0.510976
     0.510976    0.000000    0.510976
   C 
     2
Direct
  0.000000  0.000000  0.000000
  0.250000  0.250000  0.250000
 
   28   28   28
 0.16155331939E+02 0.17034283366E+02 0.18992014140E+02 0.20560517434E+02 0.20625484121E+02
 0.19087921449E+02 0.16620314159E+02 0.13989547316E+02 0.11620520997E+02 0.96811120433E+01
 0.82229919987E+01 0.71828403310E+01 0.64796167893E+01 0.60653037936E+01 0.59271472536E+01
 0.60652755980E+01 0.64796351017E+01 0.71829220080E+01 0.82230621311E+01 0.96811276985E+01
 0.11620538264E+02 0.13989614758E+02 0.16620370999E+02 0.19087873002E+02 0.20625342129E+02
 0.20560395022E+02 0.18991986410E+02 0.17034309229E+02 0.17034283366E+02 0.18624731243E+02
 0.20616275991E+02 0.21593691978E+02 0.20914878459E+02 0.18914319949E+02 0.16369885255E+02
 0.13894795044E+02 0.11758893531E+02 0.10088188104E+02 0.88632706241E+01 0.80018910408E+01
 0.74405757555E+01 0.71584970724E+01 0.71584281590E+01 0.74404675646E+01 0.80018843098E+01
 0.88633419082E+01 0.10088224860E+02 0.11758894626E+02 0.13894835162E+02 0.16369914836E+02
 0.18914194585E+02 0.20914642448E+02 0.21593660670E+02 0.20616681886E+02 0.18625351261E+02
 0.17034584289E+02 0.18992014140E+02 0.20616275991E+02 0.21891439599E+02 0.21872679364E+02
 0.20472246745E+02 0.18257987318E+02 0.15883600447E+02 0.13723665167E+02 0.11958794487E+02
 0.10628286778E+02 0.96633196231E+01 0.89904423605E+01 0.85804044812E+01 0.84406999285E+01
 0.85802647361E+01 0.89903316203E+01 0.96633286061E+01 0.10628332529E+02 0.11958798204E+02
 0.13723668689E+02 0.15883630850E+02 0.18257946716E+02 0.20472071525E+02 0.21872531748E+02
 0.21891577444E+02 0.20616710328E+02 0.18992410883E+02 0.18259593127E+02 0.20560517434E+02
 0.21593691978E+02 0.21872679364E+02 0.21023819447E+02 0.19307965854E+02 0.17257757238E+02
 0.15279510079E+02 0.13591657648E+02 0.12285324538E+02 0.11314222684E+02 0.10600378062E+02
 0.10106288748E+02 0.98456285452E+01 0.98455502747E+01 0.10106146753E+02 0.10600318947E+02
 0.11314261793E+02 0.12285378023E+02 0.13591686830E+02 0.15279535312E+02 0.17257776797E+02
 0.19307954142E+02 0.21023778536E+02 0.21872624456E+02 0.21593617490E+02 0.20560433094E+02
 0.19663500480E+02 0.19663540563E+02 0.20625484121E+02 0.20914878459E+02 0.20472246745E+02
 0.19307965854E+02 0.17750266814E+02 0.16144368011E+02 0.14717006399E+02 0.13591635821E+02
 0.12743978529E+02 0.12092799878E+02 0.11589009812E+02 0.11249983910E+02 0.11128075575E+02
 0.11249834759E+02 0.11588849806E+02 0.12092743460E+02 0.12744024885E+02 0.13591723533E+02
 0.14717075414E+02 0.16144380638E+02 0.17750247430E+02 0.19307995790E+02 0.20472339949E+02
 0.20914912213E+02 0.20625363664E+02 0.20034718430E+02 0.19743854803E+02 0.20034877940E+02
 0.19087921449E+02 0.18914319949E+02 0.18257987318E+02 0.17257757238E+02 0.16144368011E+02
 0.15119637982E+02 0.14316057199E+02 0.13723647782E+02 0.13255478680E+02 0.12843764517E+02
 0.12502712396E+02 0.12301622519E+02 0.12301522892E+02 0.12502483936E+02 0.12843549855E+02
 0.13255380507E+02 0.13723688449E+02 0.14316181030E+02 0.15119725481E+02 0.16144324439E+02
 0.17257637719E+02 0.18257970947E+02 0.18914510241E+02 0.19088227603E+02 0.18889605180E+02
 0.18645305519E+02 0.18645215552E+02 0.18889356451E+02 0.16620314159E+02 0.16369885255E+02
 0.15883600447E+02 0.15279510079E+02 0.14717006399E+02 0.14316057199E+02 0.14073076370E+02
 0.13894830804E+02 0.13690056840E+02 0.13451759352E+02 0.13246143612E+02 0.13163557934E+02
 0.13246017988E+02 0.13451542565E+02 0.13689829810E+02 0.13894704287E+02 0.14073119903E+02
 0.14316219509E+02 0.14717125503E+02 0.15279449896E+02 0.15883404776E+02 0.16369773807E+02
 0.16620480241E+02 0.16617696581E+02 0.16487102306E+02 0.16414009832E+02 0.16486769136E+02
 0.16617303017E+02 0.13989547316E+02 0.13894795044E+02 0.13723665167E+02 0.13591657648E+02
 0.13591635821E+02 0.13723647782E+02 0.13894830804E+02 0.13989588810E+02 0.13964386953E+02
 0.13856167652E+02 0.13760739226E+02 0.13760773308E+02 0.13856184601E+02 0.13964266235E+02
 0.13989370395E+02 0.13894683871E+02 0.13723682478E+02 0.13591810601E+02 0.13591834400E+02
 0.13723706903E+02 0.13894662237E+02 0.13989350052E+02 0.13964293221E+02 0.13856208961E+02
 0.13760744639E+02 0.13760703113E+02 0.13856172674E+02 0.13964389952E+02 0.11620520997E+02
 0.11758893531E+02 0.11958794487E+02 0.12285324538E+02 0.12743978529E+02 0.13255478680E+02
 0.13690056840E+02 0.13964386953E+02 0.14066437544E+02 0.14060692186E+02 0.14043557378E+02
 0.14060914881E+02 0.14066592163E+02 0.13964288541E+02 0.13689824685E+02 0.13255317090E+02
 0.12743956461E+02 0.12285423944E+02 0.11958991083E+02 0.11759095744E+02 0.11620564920E+02
 0.11475558665E+02 0.11308844628E+02 0.11167153891E+02 0.11110948766E+02 0.11167374373E+02
 0.11309151550E+02 0.11475748312E+02 0.96811120433E+01 0.10088188104E+02 0.10628286778E+02
 0.11314222684E+02 0.12092799878E+02 0.12843764517E+02 0.13451759352E+02 0.13856167652E+02
 0.14060692186E+02 0.14130498192E+02 0.14130672876E+02 0.14061005436E+02 0.13856279440E+02
 0.13451624453E+02 0.12843580901E+02 0.12092675388E+02 0.11314121929E+02 0.10628235987E+02
 0.10088293355E+02 0.96813550556E+01 0.93634791091E+01 0.91017619708E+01 0.88982279528E+01
 0.87825919506E+01 0.87826686125E+01 0.88983620041E+01 0.91017664956E+01 0.93632875133E+01
 0.82229919987E+01 0.88632706241E+01 0.96633196231E+01 0.10600378062E+02 0.11589009812E+02
 0.12502712396E+02 0.13246143612E+02 0.13760739226E+02 0.14043557378E+02 0.14130672876E+02
 0.14043799786E+02 0.13760956415E+02 0.13246158287E+02 0.12502618601E+02 0.11588957665E+02
 0.10600349892E+02 0.96632186960E+01 0.88631173477E+01 0.82229148522E+01 0.77236554309E+01
 0.73366408378E+01 0.70477850828E+01 0.68635545881E+01 0.67995061015E+01 0.68634254845E+01
 0.70475781869E+01 0.73364477639E+01 0.77235773710E+01 0.71828403310E+01 0.80018910408E+01
 0.89904423605E+01 0.10106288748E+02 0.11249983910E+02 0.12301622519E+02 0.13163557934E+02
 0.13760773308E+02 0.14060914881E+02 0.14061005436E+02 0.13760956415E+02 0.13163671469E+02
 0.12301608411E+02 0.11249926831E+02 0.10106295527E+02 0.89905166808E+01 0.80019281793E+01
 0.71827391325E+01 0.65305839574E+01 0.60242179024E+01 0.56452409761E+01 0.53877966171E+01
 0.52561573706E+01 0.52560533467E+01 0.53876076924E+01 0.56451878392E+01 0.60243656054E+01
 0.65307926814E+01 0.64796167893E+01 0.74405757555E+01 0.85804044812E+01 0.98456285452E+01
 0.11128075575E+02 0.12301522892E+02 0.13246017988E+02 0.13856184601E+02 0.14066592163E+02
 0.13856279440E+02 0.13246158287E+02 0.12301608411E+02 0.11128021360E+02 0.98454767685E+01
 0.85803266230E+01 0.74406921762E+01 0.64798258476E+01 0.57040090480E+01 0.50957303126E+01
 0.46345708560E+01 0.43078275390E+01 0.41113860512E+01 0.40456494422E+01 0.41113695982E+01
 0.43079219001E+01 0.46347900827E+01 0.50958865418E+01 0.57039399623E+01 0.60653037936E+01
 0.71584970724E+01 0.84406999285E+01 0.98455502747E+01 0.11249834759E+02 0.12502483936E+02
 0.13451542565E+02 0.13964266235E+02 0.13964288541E+02 0.13451624453E+02 0.12502618601E+02
 0.11249926831E+02 0.98454767685E+01 0.84404717805E+01 0.71583061880E+01 0.60653382775E+01
 0.51761813134E+01 0.44752896653E+01 0.39389784321E+01 0.35483588301E+01 0.32923603780E+01
 0.31655215765E+01 0.31655643073E+01 0.32924752289E+01 0.35484699900E+01 0.39389534324E+01
 0.44750857002E+01 0.51759536730E+01 0.59271472536E+01 0.71584281590E+01 0.85802647361E+01
 0.10106146753E+02 0.11588849806E+02 0.12843549855E+02 0.13689829810E+02 0.13989370395E+02
 0.13689824685E+02 0.12843580901E+02 0.11588957665E+02 0.10106295527E+02 0.85803266230E+01
 0.71583061880E+01 0.59269154697E+01 0.49153068036E+01 0.41143459606E+01 0.34989482662E+01
 0.30440109778E+01 0.27309981524E+01 0.25479216467E+01 0.24877309439E+01 0.25479575937E+01
 0.27309793596E+01 0.30438728601E+01 0.34987636209E+01 0.41142837150E+01 0.49154494832E+01
 0.60652755980E+01 0.74404675646E+01 0.89903316203E+01 0.10600318947E+02 0.12092743460E+02
 0.13255380507E+02 0.13894704287E+02 0.13894683871E+02 0.13255317090E+02 0.12092675388E+02
 0.10600349892E+02 0.89905166808E+01 0.74406921762E+01 0.60653382775E+01 0.49153068036E+01
 0.39949354996E+01 0.32836561806E+01 0.27534171578E+01 0.23787183745E+01 0.21400801437E+01
 0.20242354158E+01 0.20242231561E+01 0.21400232350E+01 0.23786182144E+01 0.27533684497E+01
 0.32837684796E+01 0.39951711336E+01 0.49154698297E+01 0.64796351017E+01 0.80018843098E+01
 0.96633286061E+01 0.11314261793E+02 0.12744024885E+02 0.13723688449E+02 0.14073119903E+02
 0.13723682478E+02 0.12743956461E+02 0.11314121929E+02 0.96632186960E+01 0.80019281793E+01
 0.64798258476E+01 0.51761813134E+01 0.41143459606E+01 0.32836561806E+01 0.26580474825E+01
 0.22081165777E+01 0.19075238347E+01 0.17358658082E+01 0.16801336238E+01 0.17358354001E+01
 0.19075069181E+01 0.22081764027E+01 0.26581924906E+01 0.32837856895E+01 0.41143263174E+01
 0.51760016189E+01 0.71829220080E+01 0.88633419082E+01 0.10628332529E+02 0.12285378023E+02
 0.13591723533E+02 0.14316181030E+02 0.14316219509E+02 0.13591810601E+02 0.12285423944E+02
 0.10628235987E+02 0.88631173477E+01 0.71827391325E+01 0.57040090480E+01 0.44752896653E+01
 0.34989482662E+01 0.27534171578E+01 0.22081165777E+01 0.18318752347E+01 0.15976882176E+01
 0.14857982605E+01 0.14857932517E+01 0.15977012260E+01 0.18319394014E+01 0.22081856259E+01
 0.27533802022E+01 0.34987678373E+01 0.44750958768E+01 0.57039880217E+01 0.82230621311E+01
 0.10088224860E+02 0.11958798204E+02 0.13591686830E+02 0.14717075414E+02 0.15119725481E+02
 0.14717125503E+02 0.13591834400E+02 0.11958991083E+02 0.10088293355E+02 0.82229148522E+01
 0.65305839574E+01 0.50957303126E+01 0.39389784321E+01 0.30440109778E+01 0.23787183745E+01
 0.19075238347E+01 0.15976882176E+01 0.14230557798E+01 0.13667803213E+01 0.14230628949E+01
 0.15977079086E+01 0.19075208977E+01 0.23786332954E+01 0.30438614518E+01 0.39388998481E+01
 0.50958422659E+01 0.65308203213E+01 0.96811276985E+01 0.11758894626E+02 0.13723668689E+02
 0.15279535312E+02 0.16144380638E+02 0.16144324439E+02 0.15279449896E+02 0.13723706903E+02
 0.11759095744E+02 0.96813550556E+01 0.77236554309E+01 0.60242179024E+01 0.46345708560E+01
 0.35483588301E+01 0.27309981524E+01 0.21400801437E+01 0.17358658082E+01 0.14857982605E+01
 0.13667803213E+01 0.13667835996E+01 0.14857976269E+01 0.17358407818E+01 0.21400350650E+01
 0.27309898173E+01 0.35484527357E+01 0.46347419775E+01 0.60243277015E+01 0.77235787131E+01
 0.11620538264E+02 0.13894835162E+02 0.15883630850E+02 0.17257776797E+02 0.17750247430E+02
 0.17257637719E+02 0.15883404776E+02 0.13894662237E+02 0.11620564920E+02 0.93634791091E+01
 0.73366408378E+01 0.56452409761E+01 0.43078275390E+01 0.32923603780E+01 0.25479216467E+01
 0.20242354158E+01 0.16801336238E+01 0.14857932517E+01 0.14230628949E+01 0.14857976269E+01
 0.16801196793E+01 0.20242148184E+01 0.25479585224E+01 0.32924878380E+01 0.43079561086E+01
 0.56452190272E+01 0.73364409367E+01 0.93632689938E+01 0.13989614758E+02 0.16369914836E+02
 0.18257946716E+02 0.19307954142E+02 0.19307995790E+02 0.18257970947E+02 0.16369773807E+02
 0.13989350052E+02 0.11475558665E+02 0.91017619708E+01 0.70477850828E+01 0.53877966171E+01
 0.41113860512E+01 0.31655215765E+01 0.24877309439E+01 0.20242231561E+01 0.17358354001E+01
 0.15977012260E+01 0.15977079086E+01 0.17358407818E+01 0.20242148184E+01 0.24877305039E+01
 0.31655412401E+01 0.41113735681E+01 0.53876903039E+01 0.70476373320E+01 0.91017353619E+01
 0.11475740138E+02 0.16620370999E+02 0.18914194585E+02 0.20472071525E+02 0.21023778536E+02
 0.20472339949E+02 0.18914510241E+02 0.16620480241E+02 0.13964293221E+02 0.11308844628E+02
 0.88982279528E+01 0.68635545881E+01 0.52561573706E+01 0.40456494422E+01 0.31655643073E+01
 0.25479575937E+01 0.21400232350E+01 0.19075069181E+01 0.18319394014E+01 0.19075208977E+01
 0.21400350650E+01 0.25479585224E+01 0.31655412401E+01 0.40455714929E+01 0.52560352548E+01
 0.68634965294E+01 0.88983482976E+01 0.11309093692E+02 0.13964451238E+02 0.19087873002E+02
 0.20914642448E+02 0.21872531748E+02 0.21872624456E+02 0.20914912213E+02 0.19088227603E+02
 0.16617696581E+02 0.13856208961E+02 0.11167153891E+02 0.87825919506E+01 0.67995061015E+01
 0.52560533467E+01 0.41113695982E+01 0.32924752289E+01 0.27309793596E+01 0.23786182144E+01
 0.22081764027E+01 0.22081856259E+01 0.23786332954E+01 0.27309898173E+01 0.32924878380E+01
 0.41113735681E+01 0.52560352548E+01 0.67995175235E+01 0.87827045464E+01 0.11167307309E+02
 0.13856213860E+02 0.16617457639E+02 0.20625342129E+02 0.21593660670E+02 0.21891577444E+02
 0.21593617490E+02 0.20625363664E+02 0.18889605180E+02 0.16487102306E+02 0.13760744639E+02
 0.11110948766E+02 0.87826686125E+01 0.68634254845E+01 0.53876076924E+01 0.43079219001E+01
 0.35484699900E+01 0.30438728601E+01 0.27533684497E+01 0.26581924906E+01 0.27533802022E+01
 0.30438614518E+01 0.35484527357E+01 0.43079561086E+01 0.53876903039E+01 0.68634965294E+01
 0.87827045464E+01 0.11110959453E+02 0.13760702665E+02 0.16486985748E+02 0.18889488095E+02
 0.20560395022E+02 0.20616681886E+02 0.20616710328E+02 0.20560433094E+02 0.20034718430E+02
 0.18645305519E+02 0.16414009832E+02 0.13760703113E+02 0.11167374373E+02 0.88983620041E+01
 0.70475781869E+01 0.56451878392E+01 0.46347900827E+01 0.39389534324E+01 0.34987636209E+01
 0.32837684796E+01 0.32837856895E+01 0.34987678373E+01 0.39388998481E+01 0.46347419775E+01
 0.56452190272E+01 0.70476373320E+01 0.88983482976E+01 0.11167307309E+02 0.13760702665E+02
 0.16414118627E+02 0.18645429379E+02 0.20034756333E+02 0.18991986410E+02 0.18625351261E+02
 0.18992410883E+02 0.19663500480E+02 0.19743854803E+02 0.18645215552E+02 0.16486769136E+02
 0.13856172674E+02 0.11309151550E+02 0.91017664956E+01 0.73364477639E+01 0.60243656054E+01
 0.50958865418E+01 0.44750857002E+01 0.41142837150E+01 0.39951711336E+01 0.41143263174E+01
 0.44750958768E+01 0.50958422659E+01 0.60243277015E+01 0.73364409367E+01 0.91017353619E+01
 0.11309093692E+02 0.13856213860E+02 0.16486985748E+02 0.18645429379E+02 0.19743762907E+02
 0.19663061481E+02 0.17034309229E+02 0.17034584289E+02 0.18259593127E+02 0.19663540563E+02
 0.20034877940E+02 0.18889356451E+02 0.16617303017E+02 0.13964389952E+02 0.11475748312E+02
 0.93632875133E+01 0.77235773710E+01 0.65307926814E+01 0.57039399623E+01 0.51759536730E+01
 0.49154494832E+01 0.49154698297E+01 0.51760016189E+01 0.57039880217E+01 0.65308203213E+01
 0.77235787131E+01 0.93632689938E+01 0.11475740138E+02 0.13964451238E+02 0.16617457639E+02
 0.18889488095E+02 0.20034756333E+02 0.19663061481E+02 0.18258994392E+02 0.17034299977E+02
 0.18624763373E+02 0.20616301242E+02 0.21593708261E+02 0.20914901772E+02 0.18914347911E+02
 0.16369898397E+02 0.13894792026E+02 0.11758890121E+02 0.10088183903E+02 0.88632520609E+01
 0.80018647284E+01 0.74405632066E+01 0.71584980892E+01 0.71584239413E+01 0.74404573387E+01
 0.80018839564E+01 0.88633493630E+01 0.10088222576E+02 0.11758883970E+02 0.13894832956E+02
 0.16369918073E+02 0.18914183954E+02 0.20914618946E+02 0.21593644132E+02 0.20616675806E+02
 0.18625343697E+02 0.17034580200E+02 0.18624763373E+02 0.20517995119E+02 0.22088129082E+02
 0.22274395720E+02 0.20951504096E+02 0.18720367954E+02 0.16290406134E+02 0.14073057089E+02
 0.12257418854E+02 0.10889181437E+02 0.98983665012E+01 0.92082017299E+01 0.87876432551E+01
 0.86442921803E+01 0.87874695265E+01 0.92080438356E+01 0.98983324891E+01 0.10889198196E+02
 0.12257422547E+02 0.14073091952E+02 0.16290457651E+02 0.18720284019E+02 0.20951243470E+02
 0.22274243801E+02 0.22088453061E+02 0.20518756306E+02 0.18625419870E+02 0.17783014302E+02
 0.20616301242E+02 0.22088129082E+02 0.22733356355E+02 0.22060422019E+02 0.20342204086E+02
 0.18196081372E+02 0.16106584706E+02 0.14316093342E+02 0.12929706131E+02 0.11901729341E+02
 0.11147338297E+02 0.10624655909E+02 0.10348318824E+02 0.10348260477E+02 0.10624531876E+02
 0.11147228615E+02 0.11901652607E+02 0.12929655145E+02 0.14316092755E+02 0.16106636160E+02
 0.18196106038E+02 0.20342134462E+02 0.22060328625E+02 0.22733395357E+02 0.22088353814E+02
 0.20616578059E+02 0.19417210235E+02 0.19417086252E+02 0.21593708261E+02 0.22274395720E+02
 0.22060422019E+02 0.20922203073E+02 0.19259398406E+02 0.17513657106E+02 0.15951812342E+02
 0.14717044521E+02 0.13789074770E+02 0.13075940891E+02 0.12520858934E+02 0.12145925072E+02
 0.12010936948E+02 0.12145944854E+02 0.12520848668E+02 0.13075867975E+02 0.13788980796E+02
 0.14717005324E+02 0.15951839946E+02 0.17513694369E+02 0.19259424664E+02 0.20922259941E+02
 0.22060484821E+02 0.22274326127E+02 0.21593449266E+02 0.20622302790E+02 0.20172850433E+02
 0.20622560863E+02 0.20914901772E+02 0.20951504096E+02 0.20342204086E+02 0.19259398406E+02
 0.18018015003E+02 0.16863229352E+02 0.15951796512E+02 0.15279510544E+02 0.14742906866E+02
 0.14266835245E+02 0.13869492684E+02 0.13633147025E+02 0.13633193024E+02 0.13869561558E+02
 0.14266814991E+02 0.14742799144E+02 0.15279429203E+02 0.15951805770E+02 0.16863262700E+02
 0.18018005623E+02 0.19259407468E+02 0.20342309539E+02 0.20951614258E+02 0.20914838929E+02
 0.20420508437E+02 0.19959979700E+02 0.19960103718E+02 0.20420725791E+02 0.18914347911E+02
 0.18720367954E+02 0.18196081372E+02 0.17513657106E+02 0.16863229352E+02 0.16394105992E+02
 0.16106577637E+02 0.15883613234E+02 0.15624118201E+02 0.15316090066E+02 0.15044796953E+02
 0.14934748793E+02 0.15044888387E+02 0.15316131625E+02 0.15624023910E+02 0.15883469257E+02
 0.16106522345E+02 0.16394149351E+02 0.16863258020E+02 0.17513601852E+02 0.18196012596E+02
 0.18720406736E+02 0.18914524691E+02 0.18760667777E+02 0.18463717621E+02 0.18318210114E+02
 0.18463565639E+02 0.18760441253E+02 0.16369898397E+02 0.16290406134E+02 0.16106584706E+02
 0.15951812342E+02 0.15951796512E+02 0.16106577637E+02 0.16290447857E+02 0.16369946495E+02
 0.16281437132E+02 0.16077191312E+02 0.15908452150E+02 0.15908567005E+02 0.16077398374E+02
 0.16281502495E+02 0.16369821727E+02 0.16290286751E+02 0.16106528199E+02 0.15951861128E+02
 0.15951881639E+02 0.16106549901E+02 0.16290270125E+02 0.16369806955E+02 0.16281528103E+02
 0.16077420661E+02 0.15908541588E+02 0.15908416581E+02 0.16077186671E+02 0.16281427783E+02
 0.13894792026E+02 0.14073057089E+02 0.14316093342E+02 0.14717044521E+02 0.15279510544E+02
 0.15883613234E+02 0.16369946495E+02 0.16620368171E+02 0.16617304562E+02 0.16486763245E+02
 0.16414033873E+02 0.16487109949E+02 0.16617656225E+02 0.16620447908E+02 0.16369790108E+02
 0.15883418801E+02 0.15279421845E+02 0.14717104587E+02 0.14316243590E+02 0.14073138811E+02
 0.13894679801E+02 0.13689810888E+02 0.13451563999E+02 0.13246025276E+02 0.13163510795E+02
 0.13246094588E+02 0.13451752912E+02 0.13690050423E+02 0.11758890121E+02 0.12257418854E+02
 0.12929706131E+02 0.13789074770E+02 0.14742906866E+02 0.15624118201E+02 0.16281437132E+02
 0.16617304562E+02 0.16674705775E+02 0.16624680636E+02 0.16624906392E+02 0.16675162920E+02
 0.16617607222E+02 0.16281446695E+02 0.15623951178E+02 0.14742695794E+02 0.13788911720E+02
 0.12929702642E+02 0.12257605578E+02 0.11759097189E+02 0.11368477203E+02 0.11034920439E+02
 0.10763342568E+02 0.10604874492E+02 0.10604992145E+02 0.10763617812E+02 0.11035150016E+02
 0.11368475042E+02 0.10088183903E+02 0.10889181437E+02 0.11901729341E+02 0.13075940891E+02
 0.14266835245E+02 0.15316090066E+02 0.16077191312E+02 0.16486763245E+02 0.16624680636E+02
 0.16644925224E+02 0.16624934742E+02 0.16487045475E+02 0.16077332991E+02 0.15316107233E+02
 0.14266773583E+02 0.13075782858E+02 0.11901516941E+02 0.10889070862E+02 0.10088274669E+02
 0.94742769622E+01 0.90005225312E+01 0.86419530995E+01 0.84082879008E+01 0.83259290309E+01
 0.84083210404E+01 0.86419357779E+01 0.90003840197E+01 0.94740772335E+01 0.88632520609E+01
 0.98983665012E+01 0.11147338297E+02 0.12520858934E+02 0.13869492684E+02 0.15044796953E+02
 0.15908452150E+02 0.16414033873E+02 0.16624906392E+02 0.16624934742E+02 0.16414105051E+02
 0.15908548148E+02 0.15044915449E+02 0.13869614368E+02 0.12520922736E+02 0.11147287894E+02
 0.98982138754E+01 0.88630766835E+01 0.80504632205E+01 0.74286304296E+01 0.69650403236E+01
 0.66476609299E+01 0.64836183426E+01 0.64835250662E+01 0.66474533634E+01 0.69648664458E+01
 0.74285918692E+01 0.80505648451E+01 0.80018647284E+01 0.92082017299E+01 0.10624655909E+02
 0.12145925072E+02 0.13633147025E+02 0.14934748793E+02 0.15908567005E+02 0.16487109949E+02
 0.16675162920E+02 0.16487045475E+02 0.15908548148E+02 0.14934831460E+02 0.13633261054E+02
 0.12145995626E+02 0.10624707785E+02 0.92082748441E+01 0.80018933347E+01 0.70338470078E+01
 0.62845436547E+01 0.57217706047E+01 0.53231431700E+01 0.50819334127E+01 0.50007015327E+01
 0.50818116889E+01 0.53230877586E+01 0.57219031769E+01 0.62847611336E+01 0.70339633911E+01
 0.74405632066E+01 0.87876432551E+01 0.10348318824E+02 0.12010936948E+02 0.13633193024E+02
 0.15044888387E+02 0.16077398374E+02 0.16617656225E+02 0.16617607222E+02 0.16077332991E+02
 0.15044915449E+02 0.13633261054E+02 0.12010905908E+02 0.10348192579E+02 0.87875970686E+01
 0.74407016893E+01 0.63460783882E+01 0.54902759660E+01 0.48408285230E+01 0.43691285242E+01
 0.40589133861E+01 0.39043125222E+01 0.39043261433E+01 0.40589941011E+01 0.43692966691E+01
 0.48409666401E+01 0.54902332197E+01 0.63458845239E+01 0.71584980892E+01 0.86442921803E+01
 0.10348260477E+02 0.12145944854E+02 0.13869561558E+02 0.15316131625E+02 0.16281502495E+02
 0.16620447908E+02 0.16281446695E+02 0.15316107233E+02 0.13869614368E+02 0.12145995626E+02
 0.10348192579E+02 0.86441129493E+01 0.71583612618E+01 0.59404022534E+01 0.49824697954E+01
 0.42510353727E+01 0.37113926334E+01 0.33389562257E+01 0.31198835728E+01 0.30475559835E+01
 0.31199690153E+01 0.33390385379E+01 0.37113606831E+01 0.42508660982E+01 0.49822824878E+01
 0.59403600217E+01 0.71584239413E+01 0.87874695265E+01 0.10624531876E+02 0.12520848668E+02
 0.14266814991E+02 0.15624023910E+02 0.16369821727E+02 0.16369790108E+02 0.15623951178E+02
 0.14266773583E+02 0.12520922736E+02 0.10624707785E+02 0.87875970686E+01 0.71583612618E+01
 0.58049493884E+01 0.47315319935E+01 0.39078820465E+01 0.32951551668E+01 0.28607160424E+01
 0.25822848703E+01 0.24463713291E+01 0.24463878548E+01 0.25822776721E+01 0.28606096761E+01
 0.32950039071E+01 0.39078462890E+01 0.47316835463E+01 0.58051567567E+01 0.74404573387E+01
 0.92080438356E+01 0.11147228615E+02 0.13075867975E+02 0.14742799144E+02 0.15883469257E+02
 0.16290286751E+02 0.15883418801E+02 0.14742695794E+02 0.13075782858E+02 0.11147287894E+02
 0.92082748441E+01 0.74407016893E+01 0.59404022534E+01 0.47315319935E+01 0.37944534249E+01
 0.30917877254E+01 0.25856650819E+01 0.22456380665E+01 0.20502625591E+01 0.19865978955E+01
 0.20502305138E+01 0.22455731641E+01 0.25856301940E+01 0.30918812889E+01 0.37946672431E+01
 0.47316967989E+01 0.59403482591E+01 0.80018839564E+01 0.98983324891E+01 0.11901652607E+02
 0.13788980796E+02 0.15279429203E+02 0.16106522345E+02 0.16106528199E+02 0.15279421845E+02
 0.13788911720E+02 0.11901516941E+02 0.98982138754E+01 0.80018933347E+01 0.63460783882E+01
 0.49824697954E+01 0.39078820465E+01 0.30917877254E+01 0.24955942169E+01 0.20831437190E+01
 0.18252806278E+01 0.17016210075E+01 0.17016065791E+01 0.18252666254E+01 0.20831862579E+01
 0.24957011800E+01 0.30918759201E+01 0.39078464736E+01 0.49823128668E+01 0.63459321879E+01
 0.88633493630E+01 0.10889198196E+02 0.12929655145E+02 0.14717005324E+02 0.15951805770E+02
 0.16394149351E+02 0.15951861128E+02 0.14717104587E+02 0.12929702642E+02 0.10889070862E+02
 0.88630766835E+01 0.70338470078E+01 0.54902759660E+01 0.42510353727E+01 0.32951551668E+01
 0.25856650819E+01 0.20831437190E+01 0.17523260884E+01 0.15655989429E+01 0.15053646698E+01
 0.15655987561E+01 0.17523613708E+01 0.20831953372E+01 0.25856326681E+01 0.32949807270E+01
 0.42508314864E+01 0.54902471394E+01 0.70340544184E+01 0.10088222576E+02 0.12257422547E+02
 0.14316092755E+02 0.15951839946E+02 0.16863262700E+02 0.16863258020E+02 0.15951881639E+02
 0.14316243590E+02 0.12257605578E+02 0.10088274669E+02 0.80504632205E+01 0.62845436547E+01
 0.48408285230E+01 0.37113926334E+01 0.28607160424E+01 0.22456380665E+01 0.18252806278E+01
 0.15655989429E+01 0.14421500861E+01 0.14421516688E+01 0.15656066574E+01 0.18252818526E+01
 0.22455943421E+01 0.28606218051E+01 0.37113291918E+01 0.48408966101E+01 0.62847226026E+01
 0.80505925343E+01 0.11758883970E+02 0.14073091952E+02 0.16106636160E+02 0.17513694369E+02
 0.18018005623E+02 0.17513601852E+02 0.16106549901E+02 0.14073138811E+02 0.11759097189E+02
 0.94742769622E+01 0.74286304296E+01 0.57217706047E+01 0.43691285242E+01 0.33389562257E+01
 0.25822848703E+01 0.20502625591E+01 0.17016210075E+01 0.15053646698E+01 0.14421516688E+01
 0.15053694713E+01 0.17016067838E+01 0.20502323776E+01 0.25822988224E+01 0.33390732638E+01
 0.43693047370E+01 0.57218564640E+01 0.74285150709E+01 0.94740215193E+01 0.13894832956E+02
 0.16290457651E+02 0.18196106038E+02 0.19259424664E+02 0.19259407468E+02 0.18196012596E+02
 0.16290270125E+02 0.13894679801E+02 0.11368477203E+02 0.90005225312E+01 0.69650403236E+01
 0.53231431700E+01 0.40589133861E+01 0.31198835728E+01 0.24463713291E+01 0.19865978955E+01
 0.17016065791E+01 0.15655987561E+01 0.15656066574E+01 0.17016067838E+01 0.19865711742E+01
 0.24463674779E+01 0.31199678406E+01 0.40590419466E+01 0.53231664831E+01 0.69648862229E+01
 0.90003247686E+01 0.11368439262E+02 0.16369918073E+02 0.18720284019E+02 0.20342134462E+02
 0.20922259941E+02 0.20342309539E+02 0.18720406736E+02 0.16369806955E+02 0.13689810888E+02
 0.11034920439E+02 0.86419530995E+01 0.66476609299E+01 0.50819334127E+01 0.39043125222E+01
 0.30475559835E+01 0.24463878548E+01 0.20502305138E+01 0.18252666254E+01 0.17523613708E+01
 0.18252818526E+01 0.20502323776E+01 0.24463674779E+01 0.30475273044E+01 0.39042646341E+01
 0.50818396201E+01 0.66475634403E+01 0.86419769386E+01 0.11035131978E+02 0.13690084604E+02
 0.18914183954E+02 0.20951243470E+02 0.22060328625E+02 0.22060484821E+02 0.20951614258E+02
 0.18914524691E+02 0.16281528103E+02 0.13451563999E+02 0.10763342568E+02 0.84082879008E+01
 0.64836183426E+01 0.50007015327E+01 0.39043261433E+01 0.31199690153E+01 0.25822776721E+01
 0.22455731641E+01 0.20831862579E+01 0.20831953372E+01 0.22455943421E+01 0.25822988224E+01
 0.31199678406E+01 0.39042646341E+01 0.50005794052E+01 0.64835388533E+01 0.84083860846E+01
 0.10763599082E+02 0.13451758558E+02 0.16281446832E+02 0.20914618946E+02 0.22274243801E+02
 0.22733395357E+02 0.22274326127E+02 0.20914838929E+02 0.18760667777E+02 0.16077420661E+02
 0.13246025276E+02 0.10604874492E+02 0.83259290309E+01 0.64835250662E+01 0.50818116889E+01
 0.40589941011E+01 0.33390385379E+01 0.28606096761E+01 0.25856301940E+01 0.24957011800E+01
 0.25856326681E+01 0.28606218051E+01 0.33390732638E+01 0.40590419466E+01 0.50818396201E+01
 0.64835388533E+01 0.83259844275E+01 0.10604964686E+02 0.13246022119E+02 0.16077225109E+02
 0.18760369624E+02 0.21593644132E+02 0.22088453061E+02 0.22088353814E+02 0.21593449266E+02
 0.20420508437E+02 0.18463717621E+02 0.15908541588E+02 0.13163510795E+02 0.10604992145E+02
 0.84083210404E+01 0.66474533634E+01 0.53230877586E+01 0.43692966691E+01 0.37113606831E+01
 0.32950039071E+01 0.30918812889E+01 0.30918759201E+01 0.32949807270E+01 0.37113291918E+01
 0.43693047370E+01 0.53231664831E+01 0.66475634403E+01 0.84083860846E+01 0.10604964686E+02
 0.13163396005E+02 0.15908401051E+02 0.18463661290E+02 0.20420612875E+02 0.20616675806E+02
 0.20518756306E+02 0.20616578059E+02 0.20622302790E+02 0.19959979700E+02 0.18318210114E+02
 0.15908416581E+02 0.13246094588E+02 0.10763617812E+02 0.86419357779E+01 0.69648664458E+01
 0.57219031769E+01 0.48409666401E+01 0.42508660982E+01 0.39078462890E+01 0.37946672431E+01
 0.39078464736E+01 0.42508314864E+01 0.48408966101E+01 0.57218564640E+01 0.69648862229E+01
 0.86419769386E+01 0.10763599082E+02 0.13246022119E+02 0.15908401051E+02 0.18318335824E+02
 0.19960199301E+02 0.20622496218E+02 0.18625343697E+02 0.18625419870E+02 0.19417210235E+02
 0.20172850433E+02 0.19960103718E+02 0.18463565639E+02 0.16077186671E+02 0.13451752912E+02
 0.11035150016E+02 0.90003840197E+01 0.74285918692E+01 0.62847611336E+01 0.54902332197E+01
 0.49822824878E+01 0.47316835463E+01 0.47316967989E+01 0.49823128668E+01 0.54902471394E+01
 0.62847226026E+01 0.74285150709E+01 0.90003247686E+01 0.11035131978E+02 0.13451758558E+02
 0.16077225109E+02 0.18463661290E+02 0.19960199301E+02 0.20172832978E+02 0.19417084145E+02
 0.17034580200E+02 0.17783014302E+02 0.19417086252E+02 0.20622560863E+02 0.20420725791E+02
 0.18760441253E+02 0.16281427783E+02 0.13690050423E+02 0.11368475042E+02 0.94740772335E+01
 0.80505648451E+01 0.70339633911E+01 0.63458845239E+01 0.59403600217E+01 0.58051567567E+01
 0.59403482591E+01 0.63459321879E+01 0.70340544184E+01 0.80505925343E+01 0.94740215193E+01
 0.11368439262E+02 0.13690084604E+02 0.16281446832E+02 0.18760369624E+02 0.20420612875E+02
 0.20622496218E+02 0.19417084145E+02 0.17783030220E+02 0.18992056282E+02 0.20616329376E+02
 0.21891467255E+02 0.21872687120E+02 0.20472265716E+02 0.18258008882E+02 0.15883591432E+02
 0.13723632191E+02 0.11958770680E+02 0.10628270048E+02 0.96632863770E+01 0.89904063260E+01
 0.85803983458E+01 0.84407131711E+01 0.85802619212E+01 0.89903173405E+01 0.96633326448E+01
 0.10628346968E+02 0.11958792203E+02 0.13723649934E+02 0.15883629327E+02 0.18257952977E+02
 0.20472054229E+02 0.21872501681E+02 0.21891571659E+02 0.20616727501E+02 0.18992423698E+02
 0.18259608146E+02 0.20616329376E+02 0.22088153359E+02 0.22733360932E+02 0.22060414391E+02
 0.20342199817E+02 0.18196074183E+02 0.16106560476E+02 0.14316060575E+02 0.12929683427E+02
 0.11901715356E+02 0.11147322490E+02 0.10624645435E+02 0.10348325395E+02 0.10348273457E+02
 0.10624533690E+02 0.11147224553E+02 0.11901657244E+02 0.12929662572E+02 0.14316088965E+02
 0.16106627511E+02 0.18196106378E+02 0.20342137282E+02 0.22060321254E+02 0.22733387832E+02
 0.22088364349E+02 0.20616602063E+02 0.19417231799E+02 0.19417107023E+02 0.21891467255E+02
 0.22733360932E+02 0.22617840977E+02 0.21497987633E+02 0.19800271371E+02 0.18004034079E+02