 running on   16 total cores
 distrk:  each k-point on   16 cores,    1 groups
 distr:  one band on    1 cores,   16 groups
 using from now: INCAR     
 vasp.5.4.1 24Jun15 (build May 02 2016 14:41:14) complex                        
  
 POSCAR found type information on POSCAR  C 
 POSCAR found :  1 types and       2 ions
 scaLAPACK will be used

 ----------------------------------------------------------------------------- 
|                                                                             |
|           W    W    AA    RRRRR   N    N  II  N    N   GGGG   !!!           |
|           W    W   A  A   R    R  NN   N  II  NN   N  G    G  !!!           |
|           W    W  A    A  R    R  N N  N  II  N N  N  G       !!!           |
|           W WW W  AAAAAA  RRRRR   N  N N  II  N  N N  G  GGG   !            |
|           WW  WW  A    A  R   R   N   NN  II  N   NN  G    G                |
|           W    W  A    A  R    R  N    N  II  N    N   GGGG   !!!           |
|                                                                             |
|      For optimal performance we recommend to set                            |
|        NCORE= 4 - approx SQRT( number of cores)                             |
|      NCORE specifies how many cores store one orbital (NPAR=cpu/NCORE).     |
|      This setting can  greatly improve the performance of VASP for DFT.     |
|      The default, NPAR=number of cores might be grossly inefficient         |
|      on modern multi-core architectures or massively parallel machines.     |
|      Do your own testing !!!!                                               |
|      Unfortunately you need to use the default for GW and RPA calculations. |
|      (for HF NCORE is supported but not extensively tested yet)             |
|                                                                             |
 ----------------------------------------------------------------------------- 

 LDA part: xc-table for Pade appr. of Perdew
 POSCAR, INCAR and KPOINTS ok, starting setup
 WARNING: small aliasing (wrap around) errors must be expected
 FFT: planning ...
 WAVECAR not read
 entering main loop
       N       E                     dE             d eps       ncg     rms          rms(c)
DAV:   1    -0.103352674931E+02   -0.10335E+02   -0.50360E+03 20448   0.472E+02
DAV:   2    -0.163615355075E+02   -0.60263E+01   -0.60047E+01 26624   0.412E+01
DAV:   3    -0.163744026912E+02   -0.12867E-01   -0.12867E-01 21040   0.215E+00
DAV:   4    -0.163744076597E+02   -0.49685E-05   -0.49685E-05 34528   0.382E-02
DAV:   5    -0.163744076603E+02   -0.68110E-09   -0.68106E-09 21008   0.111E-04    0.494E+00
DAV:   6    -0.158638406039E+02    0.51057E+00   -0.38364E-01 21808   0.246E+00    0.273E+00
DAV:   7    -0.156904262491E+02    0.17341E+00   -0.42921E-01 23200   0.266E+00    0.375E-01
DAV:   8    -0.156922129350E+02   -0.17867E-02   -0.24753E-03 22208   0.296E-01    0.502E-02
DAV:   9    -0.156922714657E+02   -0.58531E-04   -0.17303E-04 28336   0.600E-02    0.141E-02
DAV:  10    -0.156922881669E+02   -0.16701E-04   -0.18121E-05 24848   0.243E-02    0.785E-04
DAV:  11    -0.156922881591E+02    0.77947E-08   -0.81287E-08 26128   0.186E-03
   1 F= -.15692288E+02 E0= -.15692288E+02  d E =-.255162E-12
 writing wavefunctions
