   2   2   0   0
  0.6054942E+01  0.2577617E-09  0.2577617E-09  0.2577617E-09  0.5000000E-15
  1.000000000000000E-004
  CAR 
 FCC Silicon                             
     63.65849859    -15.25655277  301      9.50304459      1.00000000
    -15.257  0.0000E+00  0.0000E+00
    -14.994  0.0000E+00  0.0000E+00
    -14.730  0.0000E+00  0.0000E+00
    -14.467  0.0000E+00  0.0000E+00
    -14.204  0.0000E+00  0.0000E+00
    -13.941  0.0000E+00  0.0000E+00
    -13.678  0.0000E+00  0.0000E+00
    -13.415  0.0000E+00  0.0000E+00
    -13.152  0.0000E+00  0.0000E+00
    -12.889  0.0000E+00  0.0000E+00
    -12.626  0.0000E+00  0.0000E+00
    -12.363  0.0000E+00  0.0000E+00
    -12.100  0.8095E-10  0.2129E-10
    -11.837  0.1784E-02  0.4692E-03
    -11.574  0.3885E+00  0.1027E+00
    -11.311  0.4076E+00  0.2099E+00
    -11.048  0.2509E+00  0.2759E+00
    -10.785  0.2007E+00  0.3287E+00
    -10.522  0.1727E+00  0.3741E+00
    -10.259  0.1541E+00  0.4146E+00
     -9.996  0.1407E+00  0.4516E+00
     -9.732  0.1304E+00  0.4860E+00
     -9.469  0.1223E+00  0.5181E+00
     -9.206  0.1157E+00  0.5486E+00
     -8.943  0.1101E+00  0.5775E+00
     -8.680  0.1055E+00  0.6053E+00
     -8.417  0.1016E+00  0.6320E+00
     -8.154  0.9831E-01  0.6579E+00
     -7.891  0.9556E-01  0.6830E+00
     -7.628  0.9335E-01  0.7076E+00
     -7.365  0.9173E-01  0.7317E+00
     -7.102  0.9085E-01  0.7556E+00
     -6.839  0.9117E-01  0.7796E+00
     -6.576  0.9417E-01  0.8044E+00
     -6.313  0.1264E+00  0.8376E+00
     -6.050  0.3548E+00  0.9309E+00
     -5.787  0.2076E+00  0.9855E+00
     -5.524  0.1617E+00  0.1028E+01
     -5.261  0.1423E+00  0.1066E+01
     -4.998  0.1311E+00  0.1100E+01
     -4.735  0.1239E+00  0.1133E+01
     -4.471  0.1194E+00  0.1164E+01
     -4.208  0.1173E+00  0.1195E+01
     -3.945  0.1179E+00  0.1226E+01
     -3.682  0.2759E+00  0.1298E+01
     -3.419  0.7024E+00  0.1483E+01
     -3.156  0.2668E+01  0.2185E+01
     -2.893  0.1197E+01  0.2500E+01
     -2.630  0.1203E+01  0.2816E+01
     -2.367  0.5614E+00  0.2964E+01
     -2.104  0.3263E+00  0.3050E+01
     -1.841  0.2988E+00  0.3128E+01
     -1.578  0.9055E-01  0.3152E+01
     -1.315  0.8420E-01  0.3174E+01
     -1.052  0.8150E-01  0.3196E+01
     -0.789  0.7878E-01  0.3217E+01
     -0.526  0.7678E-01  0.3237E+01
     -0.263  0.7507E-01  0.3257E+01
      0.000  0.8077E-01  0.3278E+01
      0.263  0.2603E+00  0.3346E+01
      0.526  0.2744E+00  0.3418E+01
      0.790  0.3045E+00  0.3499E+01
      1.053  0.4133E+00  0.3607E+01
      1.316  0.7371E+00  0.3801E+01
      1.579  0.6434E+00  0.3970E+01
      1.842  0.5347E+00  0.4111E+01
      2.105  0.5044E+00  0.4244E+01
      2.368  0.5026E+00  0.4376E+01
      2.631  0.5280E+00  0.4515E+01
      2.894  0.6269E+00  0.4680E+01
      3.157  0.1436E+01  0.5058E+01
      3.420  0.9131E+00  0.5298E+01
      3.683  0.6008E+00  0.5456E+01
      3.946  0.5118E+00  0.5590E+01
      4.209  0.3741E+00  0.5689E+01
      4.472  0.3342E+00  0.5777E+01
      4.735  0.3244E+00  0.5862E+01
      4.998  0.3198E+00  0.5946E+01
      5.261  0.3192E+00  0.6030E+01
      5.524  0.3235E+00  0.6115E+01
      5.787  0.3351E+00  0.6203E+01
      6.051  0.3619E+00  0.6299E+01
      6.314  0.5117E+00  0.6433E+01
      6.577  0.8937E+00  0.6668E+01
      6.840  0.5103E+00  0.6803E+01
      7.103  0.4348E+00  0.6917E+01
      7.366  0.4073E+00  0.7024E+01
      7.629  0.3974E+00  0.7129E+01
      7.892  0.3999E+00  0.7234E+01
      8.155  0.4154E+00  0.7343E+01
      8.418  0.4507E+00  0.7462E+01
      8.681  0.5295E+00  0.7601E+01
      8.944  0.8295E+00  0.7819E+01
      9.207  0.6857E+00  0.7999E+01
      9.470  0.1962E-02  0.8000E+01
      9.733  0.4502E-10  0.8000E+01
      9.996  0.0000E+00  0.8000E+01
     10.259  0.0000E+00  0.8000E+01
     10.522  0.0000E+00  0.8000E+01
     10.785  0.0000E+00  0.8000E+01
     11.048  0.0000E+00  0.8000E+01
     11.312  0.0000E+00  0.8000E+01
     11.575  0.0000E+00  0.8000E+01
     11.838  0.0000E+00  0.8000E+01
     12.101  0.0000E+00  0.8000E+01
     12.364  0.6472E-16  0.8000E+01
     12.627  0.1130E-05  0.8000E+01
     12.890  0.5451E-01  0.8014E+01
     13.153  0.3900E+00  0.8117E+01
     13.416  0.2402E+00  0.8180E+01
     13.679  0.1100E+01  0.8469E+01
     13.942  0.8975E+00  0.8706E+01
     14.205  0.6724E+00  0.8882E+01
     14.468  0.1181E+01  0.9193E+01
     14.731  0.1016E+01  0.9460E+01
     14.994  0.7122E+00  0.9648E+01
     15.257  0.6313E+00  0.9814E+01
     15.520  0.5934E+00  0.9970E+01
     15.783  0.5768E+00  0.1012E+02
     16.046  0.5783E+00  0.1027E+02
     16.309  0.6004E+00  0.1043E+02
     16.573  0.6596E+00  0.1061E+02
     16.836  0.8611E+00  0.1083E+02
     17.099  0.2018E+01  0.1136E+02
     17.362  0.1468E+01  0.1175E+02
     17.625  0.5407E+00  0.1189E+02
     17.888  0.4770E+00  0.1202E+02
     18.151  0.4451E+00  0.1213E+02
     18.414  0.4264E+00  0.1225E+02
     18.677  0.4166E+00  0.1236E+02
     18.940  0.4175E+00  0.1247E+02
     19.203  0.4630E+00  0.1259E+02
     19.466  0.4672E+00  0.1271E+02
     19.729  0.1845E+00  0.1276E+02
     19.992  0.1661E+00  0.1280E+02
     20.255  0.1686E+00  0.1285E+02
     20.518  0.3156E+00  0.1293E+02
     20.781  0.5050E+00  0.1306E+02
     21.044  0.9230E+00  0.1331E+02
     21.307  0.7426E+00  0.1350E+02
     21.570  0.5519E+00  0.1365E+02
     21.834  0.8387E+00  0.1387E+02
     22.097  0.6056E+00  0.1403E+02
     22.360  0.4530E+00  0.1414E+02
     22.623  0.3958E+00  0.1425E+02
     22.886  0.4247E+00  0.1436E+02
     23.149  0.4423E+00  0.1448E+02
     23.412  0.4729E+00  0.1460E+02
     23.675  0.5467E+00  0.1475E+02
     23.938  0.7980E+00  0.1495E+02
     24.201  0.1011E+01  0.1522E+02
     24.464  0.6531E+00  0.1539E+02
     24.727  0.9107E+00  0.1563E+02
     24.990  0.1351E+01  0.1599E+02
     25.253  0.9979E-01  0.1601E+02
     25.516  0.7280E-01  0.1603E+02
     25.779  0.4898E-01  0.1605E+02
     26.042  0.4334E-01  0.1606E+02
     26.305  0.6514E-01  0.1607E+02
     26.568  0.2093E+00  0.1613E+02
     26.831  0.1466E+00  0.1617E+02
     27.095  0.1641E+00  0.1621E+02
     27.358  0.2237E+00  0.1627E+02
     27.621  0.5726E+00  0.1642E+02
     27.884  0.5474E+00  0.1656E+02
     28.147  0.4588E+00  0.1669E+02
     28.410  0.4391E+00  0.1680E+02
     28.673  0.6456E+00  0.1697E+02
     28.936  0.7012E+00  0.1715E+02
     29.199  0.6932E+00  0.1734E+02
     29.462  0.9840E+00  0.1760E+02
     29.725  0.8622E+00  0.1782E+02
     29.988  0.8016E+00  0.1803E+02
     30.251  0.5755E+00  0.1819E+02
     30.514  0.5457E+00  0.1833E+02
     30.777  0.8087E+00  0.1854E+02
     31.040  0.1351E+01  0.1890E+02
     31.303  0.1376E+01  0.1926E+02
     31.566  0.1005E+01  0.1952E+02
     31.829  0.6729E+00  0.1970E+02
     32.092  0.1094E+01  0.1999E+02
     32.356  0.5564E+00  0.2013E+02
     32.619  0.4360E+00  0.2025E+02
     32.882  0.5184E+00  0.2039E+02
     33.145  0.3025E+00  0.2046E+02
     33.408  0.3867E+00  0.2057E+02
     33.671  0.3828E+00  0.2067E+02
     33.934  0.7453E+00  0.2086E+02
     34.197  0.6540E+00  0.2104E+02
     34.460  0.3674E+00  0.2113E+02
     34.723  0.4275E+00  0.2124E+02
     34.986  0.4013E+00  0.2135E+02
     35.249  0.2688E+00  0.2142E+02
     35.512  0.2597E+00  0.2149E+02
     35.775  0.6739E+00  0.2167E+02
     36.038  0.5299E+00  0.2181E+02
     36.301  0.4103E+00  0.2191E+02
     36.564  0.3720E+00  0.2201E+02
     36.827  0.3503E+00  0.2210E+02
     37.090  0.3358E+00  0.2219E+02
     37.353  0.3264E+00  0.2228E+02
     37.617  0.3154E+00  0.2236E+02
     37.880  0.3089E+00  0.2244E+02
     38.143  0.3129E+00  0.2252E+02
     38.406  0.8709E+00  0.2275E+02
     38.669  0.7568E+00  0.2295E+02
     38.932  0.5888E+00  0.2311E+02
     39.195  0.5474E+00  0.2325E+02
     39.458  0.5779E+00  0.2340E+02
     39.721  0.5365E+00  0.2354E+02
     39.984  0.4735E+00  0.2367E+02
     40.247  0.8399E+00  0.2389E+02
     40.510  0.6163E+00  0.2405E+02
     40.773  0.4092E+00  0.2416E+02
     41.036  0.5564E+00  0.2431E+02
     41.299  0.5287E+00  0.2445E+02
     41.562  0.4205E+00  0.2456E+02
     41.825  0.5819E+00  0.2471E+02
     42.088  0.8870E+00  0.2494E+02
     42.351  0.5211E+00  0.2508E+02
     42.614  0.4268E+00  0.2519E+02
     42.878  0.3494E+00  0.2528E+02
     43.141  0.2879E+00  0.2536E+02
     43.404  0.2677E+00  0.2543E+02
     43.667  0.2490E+00  0.2550E+02
     43.930  0.2348E+00  0.2556E+02
     44.193  0.2302E+00  0.2562E+02
     44.456  0.2254E+00  0.2568E+02
     44.719  0.2166E+00  0.2573E+02
     44.982  0.2091E+00  0.2579E+02
     45.245  0.2099E+00  0.2584E+02
     45.508  0.2095E+00  0.2590E+02
     45.771  0.2100E+00  0.2595E+02
     46.034  0.9559E+00  0.2621E+02
     46.297  0.8279E+00  0.2642E+02
     46.560  0.6121E+00  0.2658E+02
     46.823  0.5347E+00  0.2673E+02
     47.086  0.5533E+00  0.2687E+02
     47.349  0.5556E+00  0.2702E+02
     47.612  0.5725E+00  0.2717E+02
     47.875  0.5249E+00  0.2731E+02
     48.139  0.5286E+00  0.2744E+02
     48.402  0.4228E+00  0.2756E+02
     48.665  0.3885E+00  0.2766E+02
     48.928  0.4219E+00  0.2777E+02
     49.191  0.5967E+00  0.2793E+02
     49.454  0.5716E+00  0.2808E+02
     49.717  0.7012E+00  0.2826E+02
     49.980  0.6382E+00  0.2843E+02
     50.243  0.6190E+00  0.2859E+02
     50.506  0.7540E+00  0.2879E+02
     50.769  0.1098E+01  0.2908E+02
     51.032  0.4712E+00  0.2920E+02
     51.295  0.3983E+00  0.2931E+02
     51.558  0.3951E+00  0.2941E+02
     51.821  0.6411E+00  0.2958E+02
     52.084  0.7962E+00  0.2979E+02
     52.347  0.7251E+00  0.2998E+02
     52.610  0.8952E+00  0.3022E+02
     52.873  0.1117E+01  0.3051E+02
     53.136  0.9509E+00  0.3076E+02
     53.400  0.4808E+00  0.3089E+02
     53.663  0.4583E+00  0.3101E+02
     53.926  0.5261E+00  0.3114E+02
     54.189  0.5206E+00  0.3128E+02
     54.452  0.2754E+00  0.3135E+02
     54.715  0.2731E+00  0.3143E+02
     54.978  0.2776E+00  0.3150E+02
     55.241  0.2615E+00  0.3157E+02
     55.504  0.3023E+00  0.3165E+02
     55.767  0.3617E+00  0.3174E+02
     56.030  0.4918E-01  0.3176E+02
     56.293  0.4709E-01  0.3177E+02
     56.556  0.4849E-01  0.3178E+02
     56.819  0.4939E-01  0.3179E+02
     57.082  0.4987E-01  0.3181E+02
     57.345  0.4979E-01  0.3182E+02
     57.608  0.4941E-01  0.3183E+02
     57.871  0.4913E-01  0.3185E+02
     58.134  0.4872E-01  0.3186E+02
     58.397  0.4947E-01  0.3187E+02
     58.661  0.5057E-01  0.3188E+02
     58.924  0.5323E-01  0.3190E+02
     59.187  0.5479E-01  0.3191E+02
     59.450  0.5916E-01  0.3193E+02
     59.713  0.6774E-01  0.3195E+02
     59.976  0.1002E+00  0.3197E+02
     60.239  0.1019E+00  0.3200E+02
     60.502  0.5146E-03  0.3200E+02
     60.765  0.2482E-10  0.3200E+02
     61.028  0.0000E+00  0.3200E+02
     61.291  0.0000E+00  0.3200E+02
     61.554  0.0000E+00  0.3200E+02
     61.817  0.0000E+00  0.3200E+02
     62.080  0.0000E+00  0.3200E+02
     62.343  0.0000E+00  0.3200E+02
     62.606  0.0000E+00  0.3200E+02
     62.869  0.0000E+00  0.3200E+02
     63.132  0.0000E+00  0.3200E+02
     63.395  0.0000E+00  0.3200E+02
     63.658  0.0000E+00  0.3200E+02
