 vasp.5.4.1 24Jun15 (build May 02 2016 14:41:14) complex                        
  
 executed on           IFC91_ompi date 2022.05.13  12:24:40
 running on   16 total cores
 distrk:  each k-point on   16 cores,    1 groups
 distr:  one band on NCORES_PER_BAND=   1 cores,   16 groups


--------------------------------------------------------------------------------------------------------


 INCAR:
 POTCAR:   PAW_PBE C 08Apr2002                    

 ----------------------------------------------------------------------------- 
|                                                                             |
|           W    W    AA    RRRRR   N    N  II  N    N   GGGG   !!!           |
|           W    W   A  A   R    R  NN   N  II  NN   N  G    G  !!!           |
|           W    W  A    A  R    R  N N  N  II  N N  N  G       !!!           |
|           W WW W  AAAAAA  RRRRR   N  N N  II  N  N N  G  GGG   !            |
|           WW  WW  A    A  R   R   N   NN  II  N   NN  G    G                |
|           W    W  A    A  R    R  N    N  II  N    N   GGGG   !!!           |
|                                                                             |
|      For optimal performance we recommend to set                            |
|        NCORE= 4 - approx SQRT( number of cores)                             |
|      NCORE specifies how many cores store one orbital (NPAR=cpu/NCORE).     |
|      This setting can  greatly improve the performance of VASP for DFT.     |
|      The default, NPAR=number of cores might be grossly inefficient         |
|      on modern multi-core architectures or massively parallel machines.     |
|      Do your own testing !!!!                                               |
|      Unfortunately you need to use the default for GW and RPA calculations. |
|      (for HF NCORE is supported but not extensively tested yet)             |
|                                                                             |
 ----------------------------------------------------------------------------- 

 POTCAR:   PAW_PBE C 08Apr2002                    
   VRHFIN =C: s2p2                                                              
   LEXCH  = PE                                                                  
   EATOM  =   147.1560 eV,   10.8157 Ry                                         
                                                                                
   TITEL  = PAW_PBE C 08Apr2002                                                 
   LULTRA =        F    use ultrasoft PP ?                                      
   IUNSCR =        0    unscreen: 0-lin 1-nonlin 2-no                           
   RPACOR =     .000    partial core radius                                     
   POMASS =   12.011; ZVAL   =    4.000    mass and valenz                      
   RCORE  =    1.500    outmost cutoff radius                                   
   RWIGS  =    1.630; RWIGS  =     .863    wigner-seitz radius (au A)           
   ENMAX  =  400.000; ENMIN  =  300.000 eV                                      
   ICORE  =        2    local potential                                         
   LCOR   =        T    correct aug charges                                     
   LPAW   =        T    paw PP                                                  
   EAUG   =  644.873                                                            
   DEXC   =     .000                                                            
   RMAX   =    2.266    core radius for proj-oper                               
   RAUG   =    1.300    factor for augmentation sphere                          
   RDEP   =    1.501    radius for radial grids                                 
   RDEPT  =    1.300    core radius for aug-charge                              
   QCUT   =   -5.516; QGAM   =   11.032    optimization parameters              
                                                                                
   Description                                                                  
     l     E      TYP  RCUT    TYP  RCUT                                        
     0   .000     23  1.200                                                     
     0   .000     23  1.200                                                     
     1   .000     23  1.500                                                     
     1  2.500     23  1.500                                                     
     2   .000      7  1.500                                                     
  local pseudopotential read in
  atomic valenz-charges read in
  non local Contribution for L=           0  read in
    real space projection operators read in
  non local Contribution for L=           0  read in
    real space projection operators read in
  non local Contribution for L=           1  read in
    real space projection operators read in
  non local Contribution for L=           1  read in
    real space projection operators read in
    PAW grid and wavefunctions read in
 
   number of l-projection  operators is LMAX  =           4
   number of lm-projection operators is LMMAX =           8
 
 PAW_PBE C 08Apr2002                    :
 energy of atom  1       EATOM= -147.1560
 kinetic energy error for atom=    0.0076 (will be added to EATOM!!)
 
 
 POSCAR: Diamond                                 
  positions in direct lattice
  velocities in cartesian coordinates
 exchange correlation table for  LEXCH =        8
   RHO(1)=    0.500       N(1)  =     2000
   RHO(2)=  100.500       N(2)  =     4000
 


--------------------------------------------------------------------------------------------------------


 ion  position               nearest neighbor table
   1  0.000  0.000  0.000-   2 1.58   2 1.58   2 1.58   2 1.58
   2  0.250  0.250  0.250-   1 1.58   1 1.58   1 1.58   1 1.58
 
  LATTYP: Found a face centered cubic cell.
 ALAT       =     3.6453004968
  
  Lattice vectors:
  
 A1 = (   1.8226502484,   1.8226502484,   0.0000000000)
 A2 = (   0.0000000000,   1.8226502484,   1.8226502484)
 A3 = (   1.8226502484,   0.0000000000,   1.8226502484)


Analysis of symmetry for initial positions (statically):
=====================================================================
 Subroutine PRICEL returns:
 Original cell was already a primitive cell.
 

 Routine SETGRP: Setting up the symmetry group for a 
 face centered cubic supercell.


 Subroutine GETGRP returns: Found 48 space group operations
 (whereof 24 operations were pure point group operations)
 out of a pool of 48 trial point group operations.


The static configuration has the point symmetry T_d .
 The point group associated with its full space group is O_h .


Analysis of symmetry for dynamics (positions and initial velocities):
=====================================================================
 Subroutine PRICEL returns:
 Original cell was already a primitive cell.
 

 Routine SETGRP: Setting up the symmetry group for a 
 face centered cubic supercell.


 Subroutine GETGRP returns: Found 48 space group operations
 (whereof 24 operations were pure point group operations)
 out of a pool of 48 trial point group operations.


The dynamic configuration has the point symmetry T_d .
 The point group associated with its full space group is O_h .
 
 
 KPOINTS: kpoints for bandstructure GAMMA-X-U|K-GA
  interpolating k-points between supplied coordinates
  k-points in reciprocal lattice
Space group operators:
 irot       det(A)        alpha          n_x          n_y          n_z        tau_x        tau_y        tau_z
    1     1.000000     0.000000     1.000000     0.000000     0.000000     0.000000     0.000000     0.000000
    2     1.000000   120.000000    -0.577350    -0.577350    -0.577350     0.000000     0.000000     0.000000
    3     1.000000   120.000000     0.577350     0.577350     0.577350     0.000000     0.000000     0.000000
    4    -1.000000    90.000000     0.000000    -1.000000     0.000000     0.000000     0.000000     0.000000
    5    -1.000000   180.000000     0.707107     0.707107     0.000000     0.000000     0.000000     0.000000
    6    -1.000000    90.000000     1.000000     0.000000     0.000000     0.000000     0.000000     0.000000
    7     1.000000   180.000000     0.000000     1.000000     0.000000     0.000000     0.000000     0.000000
    8     1.000000   120.000000     0.577350     0.577350    -0.577350     0.000000     0.000000     0.000000
    9     1.000000   120.000000     0.577350    -0.577350    -0.577350     0.000000     0.000000     0.000000
   10    -1.000000    90.000000     0.000000     1.000000     0.000000     0.000000     0.000000     0.000000
   11    -1.000000    90.000000     0.000000     0.000000    -1.000000     0.000000     0.000000     0.000000
   12    -1.000000   180.000000     0.000000     0.707107     0.707107     0.000000     0.000000     0.000000
   13     1.000000   120.000000    -0.577350     0.577350     0.577350     0.000000     0.000000     0.000000
   14     1.000000   120.000000    -0.577350     0.577350    -0.577350     0.000000     0.000000     0.000000
   15     1.000000   179.999999     0.000000     0.000000     1.000000     0.000000     0.000000     0.000000
   16    -1.000000    90.000000    -1.000000     0.000000     0.000000     0.000000     0.000000     0.000000
   17    -1.000000   180.000000     0.707107     0.000000     0.707107     0.000000     0.000000     0.000000
   18    -1.000000    90.000000     0.000000     0.000000     1.000000     0.000000     0.000000     0.000000
   19     1.000000   120.000000    -0.577350    -0.577350     0.577350     0.000000     0.000000     0.000000
   20     1.000000   180.000000     1.000000     0.000000     0.000000     0.000000     0.000000     0.000000
   21     1.000000   120.000000     0.577350    -0.577350     0.577350     0.000000     0.000000     0.000000
   22    -1.000000   180.000000     0.707107    -0.707107     0.000000     0.000000     0.000000     0.000000
   23    -1.000000   180.000000     0.707107     0.000000    -0.707107     0.000000     0.000000     0.000000
   24    -1.000000   180.000000     0.000000    -0.707107     0.707107     0.000000     0.000000     0.000000
   25    -1.000000     0.000000     1.000000     0.000000     0.000000     0.250000     0.250000     0.250000
   26    -1.000000   120.000000    -0.577350    -0.577350    -0.577350     0.250000     0.250000     0.250000
   27    -1.000000   120.000000     0.577350     0.577350     0.577350     0.250000     0.250000     0.250000
   28     1.000000    90.000000     0.000000    -1.000000     0.000000     0.250000     0.250000     0.250000
   29     1.000000   180.000000     0.707107     0.707107     0.000000     0.250000     0.250000     0.250000
   30     1.000000    90.000000     1.000000     0.000000     0.000000     0.250000     0.250000     0.250000
   31    -1.000000   180.000000     0.000000     1.000000     0.000000     0.250000     0.250000     0.250000
   32    -1.000000   120.000000     0.577350     0.577350    -0.577350     0.250000     0.250000     0.250000
   33    -1.000000   120.000000     0.577350    -0.577350    -0.577350     0.250000     0.250000     0.250000
   34     1.000000    90.000000     0.000000     1.000000     0.000000     0.250000     0.250000     0.250000
   35     1.000000    90.000000     0.000000     0.000000    -1.000000     0.250000     0.250000     0.250000
   36     1.000000   180.000000     0.000000     0.707107     0.707107     0.250000     0.250000     0.250000
   37    -1.000000   120.000000    -0.577350     0.577350     0.577350     0.250000     0.250000     0.250000
   38    -1.000000   120.000000    -0.577350     0.577350    -0.577350     0.250000     0.250000     0.250000
   39    -1.000000   179.999999     0.000000     0.000000     1.000000     0.250000     0.250000     0.250000
   40     1.000000    90.000000    -1.000000     0.000000     0.000000     0.250000     0.250000     0.250000
   41     1.000000   180.000000     0.707107     0.000000     0.707107     0.250000     0.250000     0.250000
   42     1.000000    90.000000     0.000000     0.000000     1.000000     0.250000     0.250000     0.250000
   43    -1.000000   120.000000    -0.577350    -0.577350     0.577350     0.250000     0.250000     0.250000
   44    -1.000000   180.000000     1.000000     0.000000     0.000000     0.250000     0.250000     0.250000
   45    -1.000000   120.000000     0.577350    -0.577350     0.577350     0.250000     0.250000     0.250000
   46     1.000000   180.000000     0.707107    -0.707107     0.000000     0.250000     0.250000     0.250000
   47     1.000000   180.000000     0.707107     0.000000    -0.707107     0.250000     0.250000     0.250000
   48     1.000000   180.000000     0.000000    -0.707107     0.707107     0.250000     0.250000     0.250000


--------------------------------------------------------------------------------------------------------




 Dimension of arrays:
   k-points           NKPTS =    600   k-points in BZ     NKDIM =    600   number of bands    NBANDS=     16
   number of dos      NEDOS =    301   number of ions     NIONS =      2
   non local maximal  LDIM  =      4   non local SUM 2l+1 LMDIM =      8
   total plane-waves  NPLWV =   2744
   max r-space proj   IRMAX =      1   max aug-charges    IRDMAX=   2873
   dimension x,y,z NGX =    14 NGY =   14 NGZ =   14
   dimension x,y,z NGXF=    28 NGYF=   28 NGZF=   28
   support grid    NGXF=    28 NGYF=   28 NGZF=   28
   ions per type =               2
 NGX,Y,Z   is equivalent  to a cutoff of   9.03,  9.03,  9.03 a.u.
 NGXF,Y,Z  is equivalent  to a cutoff of  18.06, 18.06, 18.06 a.u.


 I would recommend the setting:
   dimension x,y,z NGX =    14 NGY =   14 NGZ =   14
 SYSTEM =  FCC Silicon                             
 POSCAR =  Diamond                                 

 Startparameter for this run:
   NWRITE =      2    write-flag & timer
   PREC   = normal    normal or accurate (medium, high low for compatibility)
   ISTART =      0    job   : 0-new  1-cont  2-samecut
   ICHARG =      2    charge: 1-file 2-atom 10-const
   ISPIN  =      1    spin polarized calculation?
   LNONCOLLINEAR =      F non collinear calculations
   LSORBIT =      F    spin-orbit coupling
   INIWAV =      1    electr: 0-lowe 1-rand  2-diag
   LASPH  =      F    aspherical Exc in radial PAW
   METAGGA=      F    non-selfconsistent MetaGGA calc.

 Electronic Relaxation 1
   ENCUT  =  500.0 eV  36.75 Ry    6.06 a.u.   4.70  4.70  4.70*2*pi/ulx,y,z
   ENINI  =  500.0     initial cutoff
   ENAUG  =  644.9 eV  augmentation charge cutoff
   NELM   =    100;   NELMIN=  4; NELMDL= -5     # of ELM steps 
   EDIFF  = 0.1E-05   stopping-criterion for ELM
   LREAL  =      F    real-space projection
   NLSPLINE    = F    spline interpolate recip. space projectors
   LCOMPAT=      F    compatible to vasp.4.4
   GGA_COMPAT  = T    GGA compatible to vasp.4.4-vasp.4.6
   LMAXPAW     = -100 max onsite density
   LMAXMIX     =    2 max onsite mixed and CHGCAR
   VOSKOWN=      0    Vosko Wilk Nusair interpolation
   ROPT   =    0.00000
 Ionic relaxation
   EDIFFG = 0.1E-04   stopping-criterion for IOM
   NSW    =      0    number of steps for IOM
   NBLOCK =      1;   KBLOCK =      1    inner block; outer block 
   IBRION =     -1    ionic relax: 0-MD 1-quasi-New 2-CG
   NFREE  =      0    steps in history (QN), initial steepest desc. (CG)
   ISIF   =      2    stress and relaxation
   IWAVPR =     10    prediction:  0-non 1-charg 2-wave 3-comb
   ISYM   =      2    0-nonsym 1-usesym 2-fastsym
   LCORR  =      T    Harris-Foulkes like correction to forces

   POTIM  = 0.5000    time-step for ionic-motion
   TEIN   =    0.0    initial temperature
   TEBEG  =    0.0;   TEEND  =   0.0 temperature during run
   SMASS  =  -3.00    Nose mass-parameter (am)
   estimated Nose-frequenzy (Omega)   =  0.10E-29 period in steps =****** mass=  -0.152E-27a.u.
   SCALEE = 1.0000    scale energy and forces
   NPACO  =    256;   APACO  = 16.0  distance and # of slots for P.C.
   PSTRESS=    0.0 pullay stress

  Mass of Ions in am
   POMASS =  12.01
  Ionic Valenz
   ZVAL   =   4.00
  Atomic Wigner-Seitz radii
   RWIGS  =  -1.00
  virtual crystal weights 
   VCA    =   1.00
   NELECT =       8.0000    total number of electrons
   NUPDOWN=      -1.0000    fix difference up-down

 DOS related values:
   EMIN   =  10.00;   EMAX   =-10.00  energy-range for DOS
   EFERMI =   0.00
   ISMEAR =     0;   SIGMA  =   0.10  broadening in eV -4-tet -1-fermi 0-gaus

 Electronic relaxation 2 (details)
   IALGO  =     38    algorithm
   LDIAG  =      T    sub-space diagonalisation (order eigenvalues)
   LSUBROT=      F    optimize rotation matrix (better conditioning)
   TURBO    =      0    0=normal 1=particle mesh
   IRESTART =      0    0=no restart 2=restart with 2 vectors
   NREBOOT  =      0    no. of reboots
   NMIN     =      0    reboot dimension
   EREF     =   0.00    reference energy to select bands
   IMIX   =      4    mixing-type and parameters
     AMIX     =   0.40;   BMIX     =  1.00
     AMIX_MAG =   1.60;   BMIX_MAG =  1.00
     AMIN     =   0.10
     WC   =   100.;   INIMIX=   1;  MIXPRE=   1;  MAXMIX= -45

 Intra band minimization:
   WEIMIN = 0.0000     energy-eigenvalue tresh-hold
   EBREAK =  0.16E-07  absolut break condition
   DEPER  =   0.30     relativ break condition  

   TIME   =   0.40     timestep for ELM

  volume/ion in A,a.u.               =       6.05        40.86
  Fermi-wavevector in a.u.,A,eV,Ry     =   1.425799  2.694368 27.659302  2.032901
  Thomas-Fermi vector in A             =   2.546144
 
 Write flags
   LWAVE  =      T    write WAVECAR
   LCHARG =      T    write CHGCAR
   LVTOT  =      F    write LOCPOT, total local potential
   LVHAR  =      F    write LOCPOT, Hartree potential only
   LELF   =      F    write electronic localiz. function (ELF)
   LORBIT =      0    0 simple, 1 ext, 2 COOP (PROOUT)


 Dipole corrections
   LMONO  =      F    monopole corrections only (constant potential shift)
   LDIPOL =      F    correct potential (dipole corrections)
   IDIPOL =      0    1-x, 2-y, 3-z, 4-all directions 
   EPSILON=  1.0000000 bulk dielectric constant

 Exchange correlation treatment:
   GGA     =    --    GGA type
   LEXCH   =     8    internal setting for exchange type
   VOSKOWN=      0    Vosko Wilk Nusair interpolation
   LHFCALC =     F    Hartree Fock is set to
   LHFONE  =     F    Hartree Fock one center treatment
   AEXX    =    0.0000 exact exchange contribution

 Linear response parameters
   LEPSILON=     F    determine dielectric tensor
   LRPA    =     F    only Hartree local field effects (RPA)
   LNABLA  =     F    use nabla operator in PAW spheres
   LVEL    =     F    velocity operator in full k-point grid
   LINTERFAST=   F  fast interpolation
   KINTER  =     0    interpolate to denser k-point grid
   CSHIFT  =0.1000    complex shift for real part using Kramers Kronig
   OMEGAMAX=  -1.0    maximum frequency
   DEG_THRESHOLD= 0.2000000E-02 threshold for treating states as degnerate
   RTIME   =    0.100 relaxation time in fs

 Orbital magnetization related:
   ORBITALMAG=     F  switch on orbital magnetization
   LCHIMAG   =     F  perturbation theory with respect to B field
   DQ        =  0.001000  dq finite difference perturbation B field



--------------------------------------------------------------------------------------------------------


 Static calculation
 charge density and potential will be updated during run
 non-spin polarized calculation
 Variant of blocked Davidson
 Davidson routine will perform the subspace rotation
 perform sub-space diagonalisation
    after iterative eigenvector-optimisation
 modified Broyden-mixing scheme, WC =      100.0
 initial mixing is a Kerker type mixing with AMIX =  0.4000 and BMIX =      1.0000
 Hartree-type preconditioning will be used
 using additional bands           12
 reciprocal scheme for non local part
 calculate Harris-corrections to forces 
   (improved forces if not selfconsistent)
 use gradient corrections 
 use of overlap-Matrix (Vanderbilt PP)
 Gauss-broadening in eV      SIGMA  =   0.10


--------------------------------------------------------------------------------------------------------


  energy-cutoff  :      500.00
  volume of cell :       12.11
      direct lattice vectors                 reciprocal lattice vectors
     1.822650248  1.822650248  0.000000000     0.274325807  0.274325807 -0.274325807
     0.000000000  1.822650248  1.822650248    -0.274325807  0.274325807  0.274325807
     1.822650248  0.000000000  1.822650248     0.274325807 -0.274325807  0.274325807

  length of vectors
     2.577616701  2.577616701  2.577616701     0.475146235  0.475146235  0.475146235


 
 k-points in units of 2pi/SCALE and weight: kpoints for bandstructure GAMMA-X-U|K-GA
   0.00000000  0.00000000  0.00000000       0.002
   0.00988404  0.00000000  0.00000000       0.002
   0.01976808  0.00000000  0.00000000       0.002
   0.02965213  0.00000000  0.00000000       0.002
   0.03953617  0.00000000  0.00000000       0.002
   0.04942021  0.00000000  0.00000000       0.002
   0.05930425  0.00000000  0.00000000       0.002
   0.06918829  0.00000000  0.00000000       0.002
   0.07907234  0.00000000  0.00000000       0.002
   0.08895638  0.00000000  0.00000000       0.002
   0.09884042  0.00000000  0.00000000       0.002
   0.10872446  0.00000000  0.00000000       0.002
   0.11860850  0.00000000  0.00000000       0.002
   0.12849255  0.00000000  0.00000000       0.002
   0.13837659  0.00000000  0.00000000       0.002
   0.14826063  0.00000000  0.00000000       0.002
   0.15814467  0.00000000  0.00000000       0.002
   0.16802871  0.00000000  0.00000000       0.002
   0.17791276  0.00000000  0.00000000       0.002
   0.18779680  0.00000000  0.00000000       0.002
   0.19768084  0.00000000  0.00000000       0.002
   0.20756488  0.00000000  0.00000000       0.002
   0.21744892  0.00000000  0.00000000       0.002
   0.22733296  0.00000000  0.00000000       0.002
   0.23721701  0.00000000  0.00000000       0.002
   0.24710105  0.00000000  0.00000000       0.002
   0.25698509  0.00000000  0.00000000       0.002
   0.26686913  0.00000000  0.00000000       0.002
   0.27675317  0.00000000  0.00000000       0.002
   0.28663722  0.00000000  0.00000000       0.002
   0.29652126  0.00000000  0.00000000       0.002
   0.30640530  0.00000000  0.00000000       0.002
   0.31628934  0.00000000  0.00000000       0.002
   0.32617338  0.00000000  0.00000000       0.002
   0.33605743  0.00000000  0.00000000       0.002
   0.34594147  0.00000000  0.00000000       0.002
   0.35582551  0.00000000  0.00000000       0.002
   0.36570955  0.00000000  0.00000000       0.002
   0.37559359  0.00000000  0.00000000       0.002
   0.38547764  0.00000000  0.00000000       0.002
   0.39536168  0.00000000  0.00000000       0.002
   0.40524572  0.00000000  0.00000000       0.002
   0.41512976  0.00000000  0.00000000       0.002
   0.42501380  0.00000000  0.00000000       0.002
   0.43489785  0.00000000  0.00000000       0.002
   0.44478189  0.00000000  0.00000000       0.002
   0.45466593  0.00000000  0.00000000       0.002
   0.46454997  0.00000000  0.00000000       0.002
   0.47443401  0.00000000  0.00000000       0.002
   0.48431806  0.00000000  0.00000000       0.002
   0.49420210  0.00000000  0.00000000       0.002
   0.50408614  0.00000000  0.00000000       0.002
   0.51397018  0.00000000  0.00000000       0.002
   0.52385422  0.00000000  0.00000000       0.002
   0.53373827  0.00000000  0.00000000       0.002
   0.54362231  0.00000000  0.00000000       0.002
   0.55350635  0.00000000  0.00000000       0.002
   0.56339039  0.00000000  0.00000000       0.002
   0.57327443  0.00000000  0.00000000       0.002
   0.58315848  0.00000000  0.00000000       0.002
   0.59304252  0.00000000  0.00000000       0.002
   0.60292656  0.00000000  0.00000000       0.002
   0.61281060  0.00000000  0.00000000       0.002
   0.62269464  0.00000000  0.00000000       0.002
   0.63257868  0.00000000  0.00000000       0.002
   0.64246273  0.00000000  0.00000000       0.002
   0.65234677  0.00000000  0.00000000       0.002
   0.66223081  0.00000000  0.00000000       0.002
   0.67211485  0.00000000  0.00000000       0.002
   0.68199889  0.00000000  0.00000000       0.002
   0.69188294  0.00000000  0.00000000       0.002
   0.70176698  0.00000000  0.00000000       0.002
   0.71165102  0.00000000  0.00000000       0.002
   0.72153506  0.00000000  0.00000000       0.002
   0.73141910  0.00000000  0.00000000       0.002
   0.74130315  0.00000000  0.00000000       0.002
   0.75118719  0.00000000  0.00000000       0.002
   0.76107123  0.00000000  0.00000000       0.002
   0.77095527  0.00000000  0.00000000       0.002
   0.78083931  0.00000000  0.00000000       0.002
   0.79072336  0.00000000  0.00000000       0.002
   0.80060740  0.00000000  0.00000000       0.002
   0.81049144  0.00000000  0.00000000       0.002
   0.82037548  0.00000000  0.00000000       0.002
   0.83025952  0.00000000  0.00000000       0.002
   0.84014357  0.00000000  0.00000000       0.002
   0.85002761  0.00000000  0.00000000       0.002
   0.85991165  0.00000000  0.00000000       0.002
   0.86979569  0.00000000  0.00000000       0.002
   0.87967973  0.00000000  0.00000000       0.002
   0.88956378  0.00000000  0.00000000       0.002
   0.89944782  0.00000000  0.00000000       0.002
   0.90933186  0.00000000  0.00000000       0.002
   0.91921590  0.00000000  0.00000000       0.002
   0.92909994  0.00000000  0.00000000       0.002
   0.93898399  0.00000000  0.00000000       0.002
   0.94886803  0.00000000  0.00000000       0.002
   0.95875207  0.00000000  0.00000000       0.002
   0.96863611  0.00000000  0.00000000       0.002
   0.97852015  0.00000000  0.00000000       0.002
   0.97852015  0.00000000  0.00000000       0.002
   0.97852015  0.00247101  0.00247101       0.002
   0.97852015  0.00494202  0.00494202       0.002
   0.97852015  0.00741303  0.00741303       0.002
   0.97852015  0.00988404  0.00988404       0.002
   0.97852015  0.01235505  0.01235505       0.002
   0.97852015  0.01482606  0.01482606       0.002
   0.97852015  0.01729707  0.01729707       0.002
   0.97852015  0.01976808  0.01976808       0.002
   0.97852015  0.02223909  0.02223909       0.002
   0.97852015  0.02471010  0.02471010       0.002
   0.97852015  0.02718112  0.02718112       0.002
   0.97852015  0.02965213  0.02965213       0.002
   0.97852015  0.03212314  0.03212314       0.002
   0.97852015  0.03459415  0.03459415       0.002
   0.97852015  0.03706516  0.03706516       0.002
   0.97852015  0.03953617  0.03953617       0.002
   0.97852015  0.04200718  0.04200718       0.002
   0.97852015  0.04447819  0.04447819       0.002
   0.97852015  0.04694920  0.04694920       0.002
   0.97852015  0.04942021  0.04942021       0.002
   0.97852015  0.05189122  0.05189122       0.002
   0.97852015  0.05436223  0.05436223       0.002
   0.97852015  0.05683324  0.05683324       0.002
   0.97852015  0.05930425  0.05930425       0.002
   0.97852015  0.06177526  0.06177526       0.002
   0.97852015  0.06424627  0.06424627       0.002
   0.97852015  0.06671728  0.06671728       0.002
   0.97852015  0.06918829  0.06918829       0.002
   0.97852015  0.07165930  0.07165930       0.002
   0.97852015  0.07413031  0.07413031       0.002
   0.97852015  0.07660133  0.07660133       0.002
   0.97852015  0.07907234  0.07907234       0.002
   0.97852015  0.08154335  0.08154335       0.002
   0.97852015  0.08401436  0.08401436       0.002
   0.97852015  0.08648537  0.08648537       0.002
   0.97852015  0.08895638  0.08895638       0.002
   0.97852015  0.09142739  0.09142739       0.002
   0.97852015  0.09389840  0.09389840       0.002
   0.97852015  0.09636941  0.09636941       0.002
   0.97852015  0.09884042  0.09884042       0.002
   0.97852015  0.10131143  0.10131143       0.002
   0.97852015  0.10378244  0.10378244       0.002
   0.97852015  0.10625345  0.10625345       0.002
   0.97852015  0.10872446  0.10872446       0.002
   0.97852015  0.11119547  0.11119547       0.002
   0.97852015  0.11366648  0.11366648       0.002
   0.97852015  0.11613749  0.11613749       0.002
   0.97852015  0.11860850  0.11860850       0.002
   0.97852015  0.12107951  0.12107951       0.002
   0.97852015  0.12355052  0.12355052       0.002
   0.97852015  0.12602153  0.12602153       0.002
   0.97852015  0.12849255  0.12849255       0.002
   0.97852015  0.13096356  0.13096356       0.002
   0.97852015  0.13343457  0.13343457       0.002
   0.97852015  0.13590558  0.13590558       0.002
   0.97852015  0.13837659  0.13837659       0.002
   0.97852015  0.14084760  0.14084760       0.002
   0.97852015  0.14331861  0.14331861       0.002
   0.97852015  0.14578962  0.14578962       0.002
   0.97852015  0.14826063  0.14826063       0.002
   0.97852015  0.15073164  0.15073164       0.002
   0.97852015  0.15320265  0.15320265       0.002
   0.97852015  0.15567366  0.15567366       0.002
   0.97852015  0.15814467  0.15814467       0.002
   0.97852015  0.16061568  0.16061568       0.002
   0.97852015  0.16308669  0.16308669       0.002
   0.97852015  0.16555770  0.16555770       0.002
   0.97852015  0.16802871  0.16802871       0.002
   0.97852015  0.17049972  0.17049972       0.002
   0.97852015  0.17297073  0.17297073       0.002
   0.97852015  0.17544174  0.17544174       0.002
   0.97852015  0.17791276  0.17791276       0.002
   0.97852015  0.18038377  0.18038377       0.002
   0.97852015  0.18285478  0.18285478       0.002
   0.97852015  0.18532579  0.18532579       0.002
   0.97852015  0.18779680  0.18779680       0.002
   0.97852015  0.19026781  0.19026781       0.002
   0.97852015  0.19273882  0.19273882       0.002
   0.97852015  0.19520983  0.19520983       0.002
   0.97852015  0.19768084  0.19768084       0.002
   0.97852015  0.20015185  0.20015185       0.002
   0.97852015  0.20262286  0.20262286       0.002
   0.97852015  0.20509387  0.20509387       0.002
   0.97852015  0.20756488  0.20756488       0.002
   0.97852015  0.21003589  0.21003589       0.002
   0.97852015  0.21250690  0.21250690       0.002
   0.97852015  0.21497791  0.21497791       0.002
   0.97852015  0.21744892  0.21744892       0.002
   0.97852015  0.21991993  0.21991993       0.002
   0.97852015  0.22239094  0.22239094       0.002
   0.97852015  0.22486195  0.22486195       0.002
   0.97852015  0.22733296  0.22733296       0.002
   0.97852015  0.22980398  0.22980398       0.002
   0.97852015  0.23227499  0.23227499       0.002
   0.97852015  0.23474600  0.23474600       0.002
   0.97852015  0.23721701  0.23721701       0.002
   0.97852015  0.23968802  0.23968802       0.002
   0.97852015  0.24215903  0.24215903       0.002
   0.97852015  0.24463004  0.24463004       0.002
   0.73389011  0.00000000  0.73389011       0.002
   0.72647708  0.00000000  0.72647708       0.002
   0.71906405  0.00000000  0.71906405       0.002
   0.71165102  0.00000000  0.71165102       0.002
   0.70423799  0.00000000  0.70423799       0.002
   0.69682496  0.00000000  0.69682496       0.002
   0.68941193  0.00000000  0.68941193       0.002
   0.68199889  0.00000000  0.68199889       0.002
   0.67458586  0.00000000  0.67458586       0.002
   0.66717283  0.00000000  0.66717283       0.002
   0.65975980  0.00000000  0.65975980       0.002
   0.65234677  0.00000000  0.65234677       0.002
   0.64493374  0.00000000  0.64493374       0.002
   0.63752071  0.00000000  0.63752071       0.002
   0.63010767  0.00000000  0.63010767       0.002
   0.62269464  0.00000000  0.62269464       0.002
   0.61528161  0.00000000  0.61528161       0.002
   0.60786858  0.00000000  0.60786858       0.002
   0.60045555  0.00000000  0.60045555       0.002
   0.59304252  0.00000000  0.59304252       0.002
   0.58562949  0.00000000  0.58562949       0.002
   0.57821645  0.00000000  0.57821645       0.002
   0.57080342  0.00000000  0.57080342       0.002
   0.56339039  0.00000000  0.56339039       0.002
   0.55597736  0.00000000  0.55597736       0.002
   0.54856433  0.00000000  0.54856433       0.002
   0.54115130  0.00000000  0.54115130       0.002
   0.53373827  0.00000000  0.53373827       0.002
   0.52632523  0.00000000  0.52632523       0.002
   0.51891220  0.00000000  0.51891220       0.002
   0.51149917  0.00000000  0.51149917       0.002
   0.50408614  0.00000000  0.50408614       0.002
   0.49667311  0.00000000  0.49667311       0.002
   0.48926008  0.00000000  0.48926008       0.002
   0.48184705  0.00000000  0.48184705       0.002
   0.47443401  0.00000000  0.47443401       0.002
   0.46702098  0.00000000  0.46702098       0.002
   0.45960795  0.00000000  0.45960795       0.002
   0.45219492  0.00000000  0.45219492       0.002
   0.44478189  0.00000000  0.44478189       0.002
   0.43736886  0.00000000  0.43736886       0.002
   0.42995582  0.00000000  0.42995582       0.002
   0.42254279  0.00000000  0.42254279       0.002
   0.41512976  0.00000000  0.41512976       0.002
   0.40771673  0.00000000  0.40771673       0.002
   0.40030370  0.00000000  0.40030370       0.002
   0.39289067  0.00000000  0.39289067       0.002
   0.38547764  0.00000000  0.38547764       0.002
   0.37806460  0.00000000  0.37806460       0.002
   0.37065157  0.00000000  0.37065157       0.002
   0.36323854  0.00000000  0.36323854       0.002
   0.35582551  0.00000000  0.35582551       0.002
   0.34841248  0.00000000  0.34841248       0.002
   0.34099945  0.00000000  0.34099945       0.002
   0.33358642  0.00000000  0.33358642       0.002
   0.32617338  0.00000000  0.32617338       0.002
   0.31876035  0.00000000  0.31876035       0.002
   0.31134732  0.00000000  0.31134732       0.002
   0.30393429  0.00000000  0.30393429       0.002
   0.29652126  0.00000000  0.29652126       0.002
   0.28910823  0.00000000  0.28910823       0.002
   0.28169520  0.00000000  0.28169520       0.002
   0.27428216  0.00000000  0.27428216       0.002
   0.26686913  0.00000000  0.26686913       0.002
   0.25945610  0.00000000  0.25945610       0.002
   0.25204307  0.00000000  0.25204307       0.002
   0.24463004  0.00000000  0.24463004       0.002
   0.23721701  0.00000000  0.23721701       0.002
   0.22980398  0.00000000  0.22980398       0.002
   0.22239094  0.00000000  0.22239094       0.002
   0.21497791  0.00000000  0.21497791       0.002
   0.20756488  0.00000000  0.20756488       0.002
   0.20015185  0.00000000  0.20015185       0.002
   0.19273882  0.00000000  0.19273882       0.002
   0.18532579  0.00000000  0.18532579       0.002
   0.17791276  0.00000000  0.17791276       0.002
   0.17049972  0.00000000  0.17049972       0.002
   0.16308669  0.00000000  0.16308669       0.002
   0.15567366  0.00000000  0.15567366       0.002
   0.14826063  0.00000000  0.14826063       0.002
   0.14084760  0.00000000  0.14084760       0.002
   0.13343457  0.00000000  0.13343457       0.002
   0.12602153  0.00000000  0.12602153       0.002
   0.11860850  0.00000000  0.11860850       0.002
   0.11119547  0.00000000  0.11119547       0.002
   0.10378244  0.00000000  0.10378244       0.002
   0.09636941  0.00000000  0.09636941       0.002
   0.08895638  0.00000000  0.08895638       0.002
   0.08154335  0.00000000  0.08154335       0.002
   0.07413031  0.00000000  0.07413031       0.002
   0.06671728  0.00000000  0.06671728       0.002
   0.05930425  0.00000000  0.05930425       0.002
   0.05189122  0.00000000  0.05189122       0.002
   0.04447819  0.00000000  0.04447819       0.002
   0.03706516  0.00000000  0.03706516       0.002
   0.02965213  0.00000000  0.02965213       0.002
   0.02223909  0.00000000  0.02223909       0.002
   0.01482606  0.00000000  0.01482606       0.002
   0.00741303  0.00000000  0.00741303       0.002
   0.00000000  0.00000000  0.00000000       0.002
   0.00000000  0.00000000  0.00000000       0.002
   0.00494202  0.00494202  0.00494202       0.002
   0.00988404  0.00988404  0.00988404       0.002
   0.01482606  0.01482606  0.01482606       0.002
   0.01976808  0.01976808  0.01976808       0.002
   0.02471010  0.02471010  0.02471010       0.002
   0.02965213  0.02965213  0.02965213       0.002
   0.03459415  0.03459415  0.03459415       0.002
   0.03953617  0.03953617  0.03953617       0.002
   0.04447819  0.04447819  0.04447819       0.002
   0.04942021  0.04942021  0.04942021       0.002
   0.05436223  0.05436223  0.05436223       0.002
   0.05930425  0.05930425  0.05930425       0.002
   0.06424627  0.06424627  0.06424627       0.002
   0.06918829  0.06918829  0.06918829       0.002
   0.07413031  0.07413031  0.07413031       0.002
   0.07907234  0.07907234  0.07907234       0.002
   0.08401436  0.08401436  0.08401436       0.002
   0.08895638  0.08895638  0.08895638       0.002
   0.09389840  0.09389840  0.09389840       0.002
   0.09884042  0.09884042  0.09884042       0.002
   0.10378244  0.10378244  0.10378244       0.002
   0.10872446  0.10872446  0.10872446       0.002
   0.11366648  0.11366648  0.11366648       0.002
   0.11860850  0.11860850  0.11860850       0.002
   0.12355052  0.12355052  0.12355052       0.002
   0.12849255  0.12849255  0.12849255       0.002
   0.13343457  0.13343457  0.13343457       0.002
   0.13837659  0.13837659  0.13837659       0.002
   0.14331861  0.14331861  0.14331861       0.002
   0.14826063  0.14826063  0.14826063       0.002
   0.15320265  0.15320265  0.15320265       0.002
   0.15814467  0.15814467  0.15814467       0.002
   0.16308669  0.16308669  0.16308669       0.002
   0.16802871  0.16802871  0.16802871       0.002
   0.17297073  0.17297073  0.17297073       0.002
   0.17791276  0.17791276  0.17791276       0.002
   0.18285478  0.18285478  0.18285478       0.002
   0.18779680  0.18779680  0.18779680       0.002
   0.19273882  0.19273882  0.19273882       0.002
   0.19768084  0.19768084  0.19768084       0.002
   0.20262286  0.20262286  0.20262286       0.002
   0.20756488  0.20756488  0.20756488       0.002
   0.21250690  0.21250690  0.21250690       0.002
   0.21744892  0.21744892  0.21744892       0.002
   0.22239094  0.22239094  0.22239094       0.002
   0.22733296  0.22733296  0.22733296       0.002
   0.23227499  0.23227499  0.23227499       0.002
   0.23721701  0.23721701  0.23721701       0.002
   0.24215903  0.24215903  0.24215903       0.002
   0.24710105  0.24710105  0.24710105       0.002
   0.25204307  0.25204307  0.25204307       0.002
   0.25698509  0.25698509  0.25698509       0.002
   0.26192711  0.26192711  0.26192711       0.002
   0.26686913  0.26686913  0.26686913       0.002
   0.27181115  0.27181115  0.27181115       0.002
   0.27675317  0.27675317  0.27675317       0.002
   0.28169520  0.28169520  0.28169520       0.002
   0.28663722  0.28663722  0.28663722       0.002
   0.29157924  0.29157924  0.29157924       0.002
   0.29652126  0.29652126  0.29652126       0.002
   0.30146328  0.30146328  0.30146328       0.002
   0.30640530  0.30640530  0.30640530       0.002
   0.31134732  0.31134732  0.31134732       0.002
   0.31628934  0.31628934  0.31628934       0.002
   0.32123136  0.32123136  0.32123136       0.002
   0.32617338  0.32617338  0.32617338       0.002
   0.33111541  0.33111541  0.33111541       0.002
   0.33605743  0.33605743  0.33605743       0.002
   0.34099945  0.34099945  0.34099945       0.002
   0.34594147  0.34594147  0.34594147       0.002
   0.35088349  0.35088349  0.35088349       0.002
   0.35582551  0.35582551  0.35582551       0.002
   0.36076753  0.36076753  0.36076753       0.002
   0.36570955  0.36570955  0.36570955       0.002
   0.37065157  0.37065157  0.37065157       0.002
   0.37559359  0.37559359  0.37559359       0.002
   0.38053562  0.38053562  0.38053562       0.002
   0.38547764  0.38547764  0.38547764       0.002
   0.39041966  0.39041966  0.39041966       0.002
   0.39536168  0.39536168  0.39536168       0.002
   0.40030370  0.40030370  0.40030370       0.002
   0.40524572  0.40524572  0.40524572       0.002
   0.41018774  0.41018774  0.41018774       0.002
   0.41512976  0.41512976  0.41512976       0.002
   0.42007178  0.42007178  0.42007178       0.002
   0.42501380  0.42501380  0.42501380       0.002
   0.42995582  0.42995582  0.42995582       0.002
   0.43489785  0.43489785  0.43489785       0.002
   0.43983987  0.43983987  0.43983987       0.002
   0.44478189  0.44478189  0.44478189       0.002
   0.44972391  0.44972391  0.44972391       0.002
   0.45466593  0.45466593  0.45466593       0.002
   0.45960795  0.45960795  0.45960795       0.002
   0.46454997  0.46454997  0.46454997       0.002
   0.46949199  0.46949199  0.46949199       0.002
   0.47443401  0.47443401  0.47443401       0.002
   0.47937603  0.47937603  0.47937603       0.002
   0.48431806  0.48431806  0.48431806       0.002
   0.48926008  0.48926008  0.48926008       0.002
   0.48926008  0.48926008  0.48926008       0.002
   0.49420210  0.48431806  0.48926008       0.002
   0.49914412  0.47937603  0.48926008       0.002
   0.50408614  0.47443401  0.48926008       0.002
   0.50902816  0.46949199  0.48926008       0.002
   0.51397018  0.46454997  0.48926008       0.002
   0.51891220  0.45960795  0.48926008       0.002
   0.52385422  0.45466593  0.48926008       0.002
   0.52879624  0.44972391  0.48926008       0.002
   0.53373827  0.44478189  0.48926008       0.002
   0.53868029  0.43983987  0.48926008       0.002
   0.54362231  0.43489785  0.48926008       0.002
   0.54856433  0.42995582  0.48926008       0.002
   0.55350635  0.42501380  0.48926008       0.002
   0.55844837  0.42007178  0.48926008       0.002
   0.56339039  0.41512976  0.48926008       0.002
   0.56833241  0.41018774  0.48926008       0.002
   0.57327443  0.40524572  0.48926008       0.002
   0.57821645  0.40030370  0.48926008       0.002
   0.58315848  0.39536168  0.48926008       0.002
   0.58810050  0.39041966  0.48926008       0.002
   0.59304252  0.38547764  0.48926008       0.002
   0.59798454  0.38053562  0.48926008       0.002
   0.60292656  0.37559359  0.48926008       0.002
   0.60786858  0.37065157  0.48926008       0.002
   0.61281060  0.36570955  0.48926008       0.002
   0.61775262  0.36076753  0.48926008       0.002
   0.62269464  0.35582551  0.48926008       0.002
   0.62763666  0.35088349  0.48926008       0.002
   0.63257868  0.34594147  0.48926008       0.002
   0.63752071  0.34099945  0.48926008       0.002
   0.64246273  0.33605743  0.48926008       0.002
   0.64740475  0.33111541  0.48926008       0.002
   0.65234677  0.32617338  0.48926008       0.002
   0.65728879  0.32123136  0.48926008       0.002
   0.66223081  0.31628934  0.48926008       0.002
   0.66717283  0.31134732  0.48926008       0.002
   0.67211485  0.30640530  0.48926008       0.002
   0.67705687  0.30146328  0.48926008       0.002
   0.68199889  0.29652126  0.48926008       0.002
   0.68694092  0.29157924  0.48926008       0.002
   0.69188294  0.28663722  0.48926008       0.002
   0.69682496  0.28169520  0.48926008       0.002
   0.70176698  0.27675317  0.48926008       0.002
   0.70670900  0.27181115  0.48926008       0.002
   0.71165102  0.26686913  0.48926008       0.002
   0.71659304  0.26192711  0.48926008       0.002
   0.72153506  0.25698509  0.48926008       0.002
   0.72647708  0.25204307  0.48926008       0.002
   0.73141910  0.24710105  0.48926008       0.002
   0.73636113  0.24215903  0.48926008       0.002
   0.74130315  0.23721701  0.48926008       0.002
   0.74624517  0.23227499  0.48926008       0.002
   0.75118719  0.22733296  0.48926008       0.002
   0.75612921  0.22239094  0.48926008       0.002
   0.76107123  0.21744892  0.48926008       0.002
   0.76601325  0.21250690  0.48926008       0.002
   0.77095527  0.20756488  0.48926008       0.002
   0.77589729  0.20262286  0.48926008       0.002
   0.78083931  0.19768084  0.48926008       0.002
   0.78578134  0.19273882  0.48926008       0.002
   0.79072336  0.18779680  0.48926008       0.002
   0.79566538  0.18285478  0.48926008       0.002
   0.80060740  0.17791276  0.48926008       0.002
   0.80554942  0.17297073  0.48926008       0.002
   0.81049144  0.16802871  0.48926008       0.002
   0.81543346  0.16308669  0.48926008       0.002
   0.82037548  0.15814467  0.48926008       0.002
   0.82531750  0.15320265  0.48926008       0.002
   0.83025952  0.14826063  0.48926008       0.002
   0.83520154  0.14331861  0.48926008       0.002
   0.84014357  0.13837659  0.48926008       0.002
   0.84508559  0.13343457  0.48926008       0.002
   0.85002761  0.12849255  0.48926008       0.002
   0.85496963  0.12355052  0.48926008       0.002
   0.85991165  0.11860850  0.48926008       0.002
   0.86485367  0.11366648  0.48926008       0.002
   0.86979569  0.10872446  0.48926008       0.002
   0.87473771  0.10378244  0.48926008       0.002
   0.87967973  0.09884042  0.48926008       0.002
   0.88462175  0.09389840  0.48926008       0.002
   0.88956378  0.08895638  0.48926008       0.002
   0.89450580  0.08401436  0.48926008       0.002
   0.89944782  0.07907234  0.48926008       0.002
   0.90438984  0.07413031  0.48926008       0.002
   0.90933186  0.06918829  0.48926008       0.002
   0.91427388  0.06424627  0.48926008       0.002
   0.91921590  0.05930425  0.48926008       0.002
   0.92415792  0.05436223  0.48926008       0.002
   0.92909994  0.04942021  0.48926008       0.002
   0.93404196  0.04447819  0.48926008       0.002
   0.93898399  0.03953617  0.48926008       0.002
   0.94392601  0.03459415  0.48926008       0.002
   0.94886803  0.02965213  0.48926008       0.002
   0.95381005  0.02471010  0.48926008       0.002
   0.95875207  0.01976808  0.48926008       0.002
   0.96369409  0.01482606  0.48926008       0.002
   0.96863611  0.00988404  0.48926008       0.002
   0.97357813  0.00494202  0.48926008       0.002
   0.97852015  0.00000000  0.48926008       0.002
   0.97852015  0.00000000  0.48926008       0.002
   0.97852015 -0.00000000  0.48431806       0.002
   0.97852015  0.00000000  0.47937603       0.002
   0.97852015  0.00000000  0.47443401       0.002
   0.97852015 -0.00000000  0.46949199       0.002
   0.97852015  0.00000000  0.46454997       0.002
   0.97852015  0.00000000  0.45960795       0.002
   0.97852015  0.00000000  0.45466593       0.002
   0.97852015  0.00000000  0.44972391       0.002
   0.97852015  0.00000000  0.44478189       0.002
   0.97852015  0.00000000  0.43983987       0.002
   0.97852015  0.00000000  0.43489785       0.002
   0.97852015 -0.00000000  0.42995582       0.002
   0.97852015  0.00000000  0.42501380       0.002
   0.97852015  0.00000000  0.42007178       0.002
   0.97852015  0.00000000  0.41512976       0.002
   0.97852015  0.00000000  0.41018774       0.002
   0.97852015  0.00000000  0.40524572       0.002
   0.97852015  0.00000000  0.40030370       0.002
   0.97852015  0.00000000  0.39536168       0.002
   0.97852015  0.00000000  0.39041966       0.002
   0.97852015  0.00000000  0.38547764       0.002
   0.97852015  0.00000000  0.38053562       0.002
   0.97852015  0.00000000  0.37559359       0.002
   0.97852015 -0.00000000  0.37065157       0.002
   0.97852015  0.00000000  0.36570955       0.002
   0.97852015  0.00000000  0.36076753       0.002
   0.97852015  0.00000000  0.35582551       0.002
   0.97852015  0.00000000  0.35088349       0.002
   0.97852015 -0.00000000  0.34594147       0.002
   0.97852015  0.00000000  0.34099945       0.002
   0.97852015  0.00000000  0.33605743       0.002
   0.97852015 -0.00000000  0.33111541       0.002
   0.97852015  0.00000000  0.32617338       0.002
   0.97852015  0.00000000  0.32123136       0.002
   0.97852015  0.00000000  0.31628934       0.002
   0.97852015  0.00000000  0.31134732       0.002
   0.97852015  0.00000000  0.30640530       0.002
   0.97852015  0.00000000  0.30146328       0.002
   0.97852015  0.00000000  0.29652126       0.002
   0.97852015  0.00000000  0.29157924       0.002
   0.97852015  0.00000000  0.28663722       0.002
   0.97852015  0.00000000  0.28169520       0.002
   0.97852015 -0.00000000  0.27675317       0.002
   0.97852015  0.00000000  0.27181115       0.002
   0.97852015  0.00000000  0.26686913       0.002
   0.97852015 -0.00000000  0.26192711       0.002
   0.97852015  0.00000000  0.25698509       0.002
   0.97852015  0.00000000  0.25204307       0.002
   0.97852015  0.00000000  0.24710105       0.002
   0.97852015  0.00000000  0.24215903       0.002
   0.97852015  0.00000000  0.23721701       0.002
   0.97852015  0.00000000  0.23227499       0.002
   0.97852015  0.00000000  0.22733296       0.002
   0.97852015  0.00000000  0.22239094       0.002
   0.97852015 -0.00000000  0.21744892       0.002
   0.97852015  0.00000000  0.21250690       0.002
   0.97852015  0.00000000  0.20756488       0.002
   0.97852015 -0.00000000  0.20262286       0.002
   0.97852015  0.00000000  0.19768084       0.002
   0.97852015 -0.00000000  0.19273882       0.002
   0.97852015  0.00000000  0.18779680       0.002
   0.97852015  0.00000000  0.18285478       0.002
   0.97852015  0.00000000  0.17791276       0.002
   0.97852015  0.00000000  0.17297073       0.002
   0.97852015  0.00000000  0.16802871       0.002
   0.97852015  0.00000000  0.16308669       0.002
   0.97852015  0.00000000  0.15814467       0.002
   0.97852015  0.00000000  0.15320265       0.002
   0.97852015  0.00000000  0.14826063       0.002
   0.97852015  0.00000000  0.14331861       0.002
   0.97852015  0.00000000  0.13837659       0.002
   0.97852015  0.00000000  0.13343457       0.002
   0.97852015  0.00000000  0.12849255       0.002
   0.97852015 -0.00000000  0.12355052       0.002
   0.97852015  0.00000000  0.11860850       0.002
   0.97852015  0.00000000  0.11366648       0.002
   0.97852015  0.00000000  0.10872446       0.002
   0.97852015  0.00000000  0.10378244       0.002
   0.97852015  0.00000000  0.09884042       0.002
   0.97852015  0.00000000  0.09389840       0.002
   0.97852015  0.00000000  0.08895638       0.002
   0.97852015  0.00000000  0.08401436       0.002
   0.97852015  0.00000000  0.07907234       0.002
   0.97852015  0.00000000  0.07413031       0.002
   0.97852015  0.00000000  0.06918829       0.002
   0.97852015 -0.00000000  0.06424627       0.002
   0.97852015  0.00000000  0.05930425       0.002
   0.97852015  0.00000000  0.05436223       0.002
   0.97852015  0.00000000  0.04942021       0.002
   0.97852015  0.00000000  0.04447819       0.002
   0.97852015 -0.00000000  0.03953617       0.002
   0.97852015  0.00000000  0.03459415       0.002
   0.97852015  0.00000000  0.02965213       0.002
   0.97852015  0.00000000  0.02471010       0.002
   0.97852015  0.00000000  0.01976808       0.002
   0.97852015  0.00000000  0.01482606       0.002
   0.97852015  0.00000000  0.00988404       0.002
   0.97852015  0.00000000  0.00494202       0.002
   0.97852015  0.00000000  0.00000000       0.002
 
 k-points in reciprocal lattice and weights: kpoints for bandstructure GAMMA-X-U|K-GA
   0.00000000  0.00000000  0.00000000       0.002
   0.00505051  0.00000000  0.00505051       0.002
   0.01010101  0.00000000  0.01010101       0.002
   0.01515152  0.00000000  0.01515152       0.002
   0.02020202  0.00000000  0.02020202       0.002
   0.02525253  0.00000000  0.02525253       0.002
   0.03030303  0.00000000  0.03030303       0.002
   0.03535354  0.00000000  0.03535354       0.002
   0.04040404  0.00000000  0.04040404       0.002
   0.04545455  0.00000000  0.04545455       0.002
   0.05050505  0.00000000  0.05050505       0.002
   0.05555556  0.00000000  0.05555556       0.002
   0.06060606  0.00000000  0.06060606       0.002
   0.06565657  0.00000000  0.06565657       0.002
   0.07070707  0.00000000  0.07070707       0.002
   0.07575758  0.00000000  0.07575758       0.002
   0.08080808  0.00000000  0.08080808       0.002
   0.08585859  0.00000000  0.08585859       0.002
   0.09090909  0.00000000  0.09090909       0.002
   0.09595960  0.00000000  0.09595960       0.002
   0.10101010  0.00000000  0.10101010       0.002
   0.10606061  0.00000000  0.10606061       0.002
   0.11111111  0.00000000  0.11111111       0.002
   0.11616162  0.00000000  0.11616162       0.002
   0.12121212  0.00000000  0.12121212       0.002
   0.12626263  0.00000000  0.12626263       0.002
   0.13131313  0.00000000  0.13131313       0.002
   0.13636364  0.00000000  0.13636364       0.002
   0.14141414  0.00000000  0.14141414       0.002
   0.14646465  0.00000000  0.14646465       0.002
   0.15151515  0.00000000  0.15151515       0.002
   0.15656566  0.00000000  0.15656566       0.002
   0.16161616  0.00000000  0.16161616       0.002
   0.16666667  0.00000000  0.16666667       0.002
   0.17171717  0.00000000  0.17171717       0.002
   0.17676768  0.00000000  0.17676768       0.002
   0.18181818  0.00000000  0.18181818       0.002
   0.18686869  0.00000000  0.18686869       0.002
   0.19191919  0.00000000  0.19191919       0.002
   0.19696970  0.00000000  0.19696970       0.002
   0.20202020  0.00000000  0.20202020       0.002
   0.20707071  0.00000000  0.20707071       0.002
   0.21212121  0.00000000  0.21212121       0.002
   0.21717172  0.00000000  0.21717172       0.002
   0.22222222  0.00000000  0.22222222       0.002
   0.22727273  0.00000000  0.22727273       0.002
   0.23232323  0.00000000  0.23232323       0.002
   0.23737374  0.00000000  0.23737374       0.002
   0.24242424  0.00000000  0.24242424       0.002
   0.24747475  0.00000000  0.24747475       0.002
   0.25252525  0.00000000  0.25252525       0.002
   0.25757576  0.00000000  0.25757576       0.002
   0.26262626  0.00000000  0.26262626       0.002
   0.26767677  0.00000000  0.26767677       0.002
   0.27272727  0.00000000  0.27272727       0.002
   0.27777778  0.00000000  0.27777778       0.002
   0.28282828  0.00000000  0.28282828       0.002
   0.28787879  0.00000000  0.28787879       0.002
   0.29292929  0.00000000  0.29292929       0.002
   0.29797980  0.00000000  0.29797980       0.002
   0.30303030  0.00000000  0.30303030       0.002
   0.30808081  0.00000000  0.30808081       0.002
   0.31313131  0.00000000  0.31313131       0.002
   0.31818182  0.00000000  0.31818182       0.002
   0.32323232  0.00000000  0.32323232       0.002
   0.32828283  0.00000000  0.32828283       0.002
   0.33333333  0.00000000  0.33333333       0.002
   0.33838384  0.00000000  0.33838384       0.002
   0.34343434  0.00000000  0.34343434       0.002
   0.34848485  0.00000000  0.34848485       0.002
   0.35353535  0.00000000  0.35353535       0.002
   0.35858586  0.00000000  0.35858586       0.002
   0.36363636  0.00000000  0.36363636       0.002
   0.36868687  0.00000000  0.36868687       0.002
   0.37373737  0.00000000  0.37373737       0.002
   0.37878788  0.00000000  0.37878788       0.002
   0.38383838  0.00000000  0.38383838       0.002
   0.38888889  0.00000000  0.38888889       0.002
   0.39393939  0.00000000  0.39393939       0.002
   0.39898990  0.00000000  0.39898990       0.002
   0.40404040  0.00000000  0.40404040       0.002
   0.40909091  0.00000000  0.40909091       0.002
   0.41414141  0.00000000  0.41414141       0.002
   0.41919192  0.00000000  0.41919192       0.002
   0.42424242  0.00000000  0.42424242       0.002
   0.42929293  0.00000000  0.42929293       0.002
   0.43434343  0.00000000  0.43434343       0.002
   0.43939394  0.00000000  0.43939394       0.002
   0.44444444  0.00000000  0.44444444       0.002
   0.44949495  0.00000000  0.44949495       0.002
   0.45454545  0.00000000  0.45454545       0.002
   0.45959596  0.00000000  0.45959596       0.002
   0.46464646  0.00000000  0.46464646       0.002
   0.46969697  0.00000000  0.46969697       0.002
   0.47474747  0.00000000  0.47474747       0.002
   0.47979798  0.00000000  0.47979798       0.002
   0.48484848  0.00000000  0.48484848       0.002
   0.48989899  0.00000000  0.48989899       0.002
   0.49494949  0.00000000  0.49494949       0.002
   0.50000000  0.00000000  0.50000000       0.002
   0.50000000  0.00000000  0.50000000       0.002
   0.50126263  0.00252525  0.50126263       0.002
   0.50252525  0.00505051  0.50252525       0.002
   0.50378788  0.00757576  0.50378788       0.002
   0.50505051  0.01010101  0.50505051       0.002
   0.50631313  0.01262626  0.50631313       0.002
   0.50757576  0.01515152  0.50757576       0.002
   0.50883838  0.01767677  0.50883838       0.002
   0.51010101  0.02020202  0.51010101       0.002
   0.51136364  0.02272727  0.51136364       0.002
   0.51262626  0.02525253  0.51262626       0.002
   0.51388889  0.02777778  0.51388889       0.002
   0.51515152  0.03030303  0.51515152       0.002
   0.51641414  0.03282828  0.51641414       0.002
   0.51767677  0.03535354  0.51767677       0.002
   0.51893939  0.03787879  0.51893939       0.002
   0.52020202  0.04040404  0.52020202       0.002
   0.52146465  0.04292929  0.52146465       0.002
   0.52272727  0.04545455  0.52272727       0.002
   0.52398990  0.04797980  0.52398990       0.002
   0.52525253  0.05050505  0.52525253       0.002
   0.52651515  0.05303030  0.52651515       0.002
   0.52777778  0.05555556  0.52777778       0.002
   0.52904040  0.05808081  0.52904040       0.002
   0.53030303  0.06060606  0.53030303       0.002
   0.53156566  0.06313131  0.53156566       0.002
   0.53282828  0.06565657  0.53282828       0.002
   0.53409091  0.06818182  0.53409091       0.002
   0.53535354  0.07070707  0.53535354       0.002
   0.53661616  0.07323232  0.53661616       0.002
   0.53787879  0.07575758  0.53787879       0.002
   0.53914141  0.07828283  0.53914141       0.002
   0.54040404  0.08080808  0.54040404       0.002
   0.54166667  0.08333333  0.54166667       0.002
   0.54292929  0.08585859  0.54292929       0.002
   0.54419192  0.08838384  0.54419192       0.002
   0.54545455  0.09090909  0.54545455       0.002
   0.54671717  0.09343434  0.54671717       0.002
   0.54797980  0.09595960  0.54797980       0.002
   0.54924242  0.09848485  0.54924242       0.002
   0.55050505  0.10101010  0.55050505       0.002
   0.55176768  0.10353535  0.55176768       0.002
   0.55303030  0.10606061  0.55303030       0.002
   0.55429293  0.10858586  0.55429293       0.002
   0.55555556  0.11111111  0.55555556       0.002
   0.55681818  0.11363636  0.55681818       0.002
   0.55808081  0.11616162  0.55808081       0.002
   0.55934343  0.11868687  0.55934343       0.002
   0.56060606  0.12121212  0.56060606       0.002
   0.56186869  0.12373737  0.56186869       0.002
   0.56313131  0.12626263  0.56313131       0.002
   0.56439394  0.12878788  0.56439394       0.002
   0.56565657  0.13131313  0.56565657       0.002
   0.56691919  0.13383838  0.56691919       0.002
   0.56818182  0.13636364  0.56818182       0.002
   0.56944444  0.13888889  0.56944444       0.002
   0.57070707  0.14141414  0.57070707       0.002
   0.57196970  0.14393939  0.57196970       0.002
   0.57323232  0.14646465  0.57323232       0.002
   0.57449495  0.14898990  0.57449495       0.002
   0.57575758  0.15151515  0.57575758       0.002
   0.57702020  0.15404040  0.57702020       0.002
   0.57828283  0.15656566  0.57828283       0.002
   0.57954545  0.15909091  0.57954545       0.002
   0.58080808  0.16161616  0.58080808       0.002
   0.58207071  0.16414141  0.58207071       0.002
   0.58333333  0.16666667  0.58333333       0.002
   0.58459596  0.16919192  0.58459596       0.002
   0.58585859  0.17171717  0.58585859       0.002
   0.58712121  0.17424242  0.58712121       0.002
   0.58838384  0.17676768  0.58838384       0.002
   0.58964646  0.17929293  0.58964646       0.002
   0.59090909  0.18181818  0.59090909       0.002
   0.59217172  0.18434343  0.59217172       0.002
   0.59343434  0.18686869  0.59343434       0.002
   0.59469697  0.18939394  0.59469697       0.002
   0.59595960  0.19191919  0.59595960       0.002
   0.59722222  0.19444444  0.59722222       0.002
   0.59848485  0.19696970  0.59848485       0.002
   0.59974747  0.19949495  0.59974747       0.002
   0.60101010  0.20202020  0.60101010       0.002
   0.60227273  0.20454545  0.60227273       0.002
   0.60353535  0.20707071  0.60353535       0.002
   0.60479798  0.20959596  0.60479798       0.002
   0.60606061  0.21212121  0.60606061       0.002
   0.60732323  0.21464646  0.60732323       0.002
   0.60858586  0.21717172  0.60858586       0.002
   0.60984848  0.21969697  0.60984848       0.002
   0.61111111  0.22222222  0.61111111       0.002
   0.61237374  0.22474747  0.61237374       0.002
   0.61363636  0.22727273  0.61363636       0.002
   0.61489899  0.22979798  0.61489899       0.002
   0.61616162  0.23232323  0.61616162       0.002
   0.61742424  0.23484848  0.61742424       0.002
   0.61868687  0.23737374  0.61868687       0.002
   0.61994949  0.23989899  0.61994949       0.002
   0.62121212  0.24242424  0.62121212       0.002
   0.62247475  0.24494949  0.62247475       0.002
   0.62373737  0.24747475  0.62373737       0.002
   0.62500000  0.25000000  0.62500000       0.002
   0.37500000  0.37500000  0.75000000       0.002
   0.37121212  0.37121212  0.74242424       0.002
   0.36742424  0.36742424  0.73484848       0.002
   0.36363636  0.36363636  0.72727273       0.002
   0.35984848  0.35984848  0.71969697       0.002
   0.35606061  0.35606061  0.71212121       0.002
   0.35227273  0.35227273  0.70454545       0.002
   0.34848485  0.34848485  0.69696970       0.002
   0.34469697  0.34469697  0.68939394       0.002
   0.34090909  0.34090909  0.68181818       0.002
   0.33712121  0.33712121  0.67424242       0.002
   0.33333333  0.33333333  0.66666667       0.002
   0.32954545  0.32954545  0.65909091       0.002
   0.32575758  0.32575758  0.65151515       0.002
   0.32196970  0.32196970  0.64393939       0.002
   0.31818182  0.31818182  0.63636364       0.002
   0.31439394  0.31439394  0.62878788       0.002
   0.31060606  0.31060606  0.62121212       0.002
   0.30681818  0.30681818  0.61363636       0.002
   0.30303030  0.30303030  0.60606061       0.002
   0.29924242  0.29924242  0.59848485       0.002
   0.29545455  0.29545455  0.59090909       0.002
   0.29166667  0.29166667  0.58333333       0.002
   0.28787879  0.28787879  0.57575758       0.002
   0.28409091  0.28409091  0.56818182       0.002
   0.28030303  0.28030303  0.56060606       0.002
   0.27651515  0.27651515  0.55303030       0.002
   0.27272727  0.27272727  0.54545455       0.002
   0.26893939  0.26893939  0.53787879       0.002
   0.26515152  0.26515152  0.53030303       0.002
   0.26136364  0.26136364  0.52272727       0.002
   0.25757576  0.25757576  0.51515152       0.002
   0.25378788  0.25378788  0.50757576       0.002
   0.25000000  0.25000000  0.50000000       0.002
   0.24621212  0.24621212  0.49242424       0.002
   0.24242424  0.24242424  0.48484848       0.002
   0.23863636  0.23863636  0.47727273       0.002
   0.23484848  0.23484848  0.46969697       0.002
   0.23106061  0.23106061  0.46212121       0.002
   0.22727273  0.22727273  0.45454545       0.002
   0.22348485  0.22348485  0.44696970       0.002
   0.21969697  0.21969697  0.43939394       0.002
   0.21590909  0.21590909  0.43181818       0.002
   0.21212121  0.21212121  0.42424242       0.002
   0.20833333  0.20833333  0.41666667       0.002
   0.20454545  0.20454545  0.40909091       0.002
   0.20075758  0.20075758  0.40151515       0.002
   0.19696970  0.19696970  0.39393939       0.002
   0.19318182  0.19318182  0.38636364       0.002
   0.18939394  0.18939394  0.37878788       0.002
   0.18560606  0.18560606  0.37121212       0.002
   0.18181818  0.18181818  0.36363636       0.002
   0.17803030  0.17803030  0.35606061       0.002
   0.17424242  0.17424242  0.34848485       0.002
   0.17045455  0.17045455  0.34090909       0.002
   0.16666667  0.16666667  0.33333333       0.002
   0.16287879  0.16287879  0.32575758       0.002
   0.15909091  0.15909091  0.31818182       0.002
   0.15530303  0.15530303  0.31060606       0.002
   0.15151515  0.15151515  0.30303030       0.002
   0.14772727  0.14772727  0.29545455       0.002
   0.14393939  0.14393939  0.28787879       0.002
   0.14015152  0.14015152  0.28030303       0.002
   0.13636364  0.13636364  0.27272727       0.002
   0.13257576  0.13257576  0.26515152       0.002
   0.12878788  0.12878788  0.25757576       0.002
   0.12500000  0.12500000  0.25000000       0.002
   0.12121212  0.12121212  0.24242424       0.002
   0.11742424  0.11742424  0.23484848       0.002
   0.11363636  0.11363636  0.22727273       0.002
   0.10984848  0.10984848  0.21969697       0.002
   0.10606061  0.10606061  0.21212121       0.002
   0.10227273  0.10227273  0.20454545       0.002
   0.09848485  0.09848485  0.19696970       0.002
   0.09469697  0.09469697  0.18939394       0.002
   0.09090909  0.09090909  0.18181818       0.002
   0.08712121  0.08712121  0.17424242       0.002
   0.08333333  0.08333333  0.16666667       0.002
   0.07954545  0.07954545  0.15909091       0.002
   0.07575758  0.07575758  0.15151515       0.002
   0.07196970  0.07196970  0.14393939       0.002
   0.06818182  0.06818182  0.13636364       0.002
   0.06439394  0.06439394  0.12878788       0.002
   0.06060606  0.06060606  0.12121212       0.002
   0.05681818  0.05681818  0.11363636       0.002
   0.05303030  0.05303030  0.10606061       0.002
   0.04924242  0.04924242  0.09848485       0.002
   0.04545455  0.04545455  0.09090909       0.002
   0.04166667  0.04166667  0.08333333       0.002
   0.03787879  0.03787879  0.07575758       0.002
   0.03409091  0.03409091  0.06818182       0.002
   0.03030303  0.03030303  0.06060606       0.002
   0.02651515  0.02651515  0.05303030       0.002
   0.02272727  0.02272727  0.04545455       0.002
   0.01893939  0.01893939  0.03787879       0.002
   0.01515152  0.01515152  0.03030303       0.002
   0.01136364  0.01136364  0.02272727       0.002
   0.00757576  0.00757576  0.01515152       0.002
   0.00378788  0.00378788  0.00757576       0.002
   0.00000000  0.00000000  0.00000000       0.002
   0.00000000  0.00000000  0.00000000       0.002
   0.00505051  0.00505051  0.00505051       0.002
   0.01010101  0.01010101  0.01010101       0.002
   0.01515152  0.01515152  0.01515152       0.002
   0.02020202  0.02020202  0.02020202       0.002
   0.02525253  0.02525253  0.02525253       0.002
   0.03030303  0.03030303  0.03030303       0.002
   0.03535354  0.03535354  0.03535354       0.002
   0.04040404  0.04040404  0.04040404       0.002
   0.04545455  0.04545455  0.04545455       0.002
   0.05050505  0.05050505  0.05050505       0.002
   0.05555556  0.05555556  0.05555556       0.002
   0.06060606  0.06060606  0.06060606       0.002
   0.06565657  0.06565657  0.06565657       0.002
   0.07070707  0.07070707  0.07070707       0.002
   0.07575758  0.07575758  0.07575758       0.002
   0.08080808  0.08080808  0.08080808       0.002
   0.08585859  0.08585859  0.08585859       0.002
   0.09090909  0.09090909  0.09090909       0.002
   0.09595960  0.09595960  0.09595960       0.002
   0.10101010  0.10101010  0.10101010       0.002
   0.10606061  0.10606061  0.10606061       0.002
   0.11111111  0.11111111  0.11111111       0.002
   0.11616162  0.11616162  0.11616162       0.002
   0.12121212  0.12121212  0.12121212       0.002
   0.12626263  0.12626263  0.12626263       0.002
   0.13131313  0.13131313  0.13131313       0.002
   0.13636364  0.13636364  0.13636364       0.002
   0.14141414  0.14141414  0.14141414       0.002
   0.14646465  0.14646465  0.14646465       0.002
   0.15151515  0.15151515  0.15151515       0.002
   0.15656566  0.15656566  0.15656566       0.002
   0.16161616  0.16161616  0.16161616       0.002
   0.16666667  0.16666667  0.16666667       0.002
   0.17171717  0.17171717  0.17171717       0.002
   0.17676768  0.17676768  0.17676768       0.002
   0.18181818  0.18181818  0.18181818       0.002
   0.18686869  0.18686869  0.18686869       0.002
   0.19191919  0.19191919  0.19191919       0.002
   0.19696970  0.19696970  0.19696970       0.002
   0.20202020  0.20202020  0.20202020       0.002
   0.20707071  0.20707071  0.20707071       0.002
   0.21212121  0.21212121  0.21212121       0.002
   0.21717172  0.21717172  0.21717172       0.002
   0.22222222  0.22222222  0.22222222       0.002
   0.22727273  0.22727273  0.22727273       0.002
   0.23232323  0.23232323  0.23232323       0.002
   0.23737374  0.23737374  0.23737374       0.002
   0.24242424  0.24242424  0.24242424       0.002
   0.24747475  0.24747475  0.24747475       0.002
   0.25252525  0.25252525  0.25252525       0.002
   0.25757576  0.25757576  0.25757576       0.002
   0.26262626  0.26262626  0.26262626       0.002
   0.26767677  0.26767677  0.26767677       0.002
   0.27272727  0.27272727  0.27272727       0.002
   0.27777778  0.27777778  0.27777778       0.002
   0.28282828  0.28282828  0.28282828       0.002
   0.28787879  0.28787879  0.28787879       0.002
   0.29292929  0.29292929  0.29292929       0.002
   0.29797980  0.29797980  0.29797980       0.002
   0.30303030  0.30303030  0.30303030       0.002
   0.30808081  0.30808081  0.30808081       0.002
   0.31313131  0.31313131  0.31313131       0.002
   0.31818182  0.31818182  0.31818182       0.002
   0.32323232  0.32323232  0.32323232       0.002
   0.32828283  0.32828283  0.32828283       0.002
   0.33333333  0.33333333  0.33333333       0.002
   0.33838384  0.33838384  0.33838384       0.002
   0.34343434  0.34343434  0.34343434       0.002
   0.34848485  0.34848485  0.34848485       0.002
   0.35353535  0.35353535  0.35353535       0.002
   0.35858586  0.35858586  0.35858586       0.002
   0.36363636  0.36363636  0.36363636       0.002
   0.36868687  0.36868687  0.36868687       0.002
   0.37373737  0.37373737  0.37373737       0.002
   0.37878788  0.37878788  0.37878788       0.002
   0.38383838  0.38383838  0.38383838       0.002
   0.38888889  0.38888889  0.38888889       0.002
   0.39393939  0.39393939  0.39393939       0.002
   0.39898990  0.39898990  0.39898990       0.002
   0.40404040  0.40404040  0.40404040       0.002
   0.40909091  0.40909091  0.40909091       0.002
   0.41414141  0.41414141  0.41414141       0.002
   0.41919192  0.41919192  0.41919192       0.002
   0.42424242  0.42424242  0.42424242       0.002
   0.42929293  0.42929293  0.42929293       0.002
   0.43434343  0.43434343  0.43434343       0.002
   0.43939394  0.43939394  0.43939394       0.002
   0.44444444  0.44444444  0.44444444       0.002
   0.44949495  0.44949495  0.44949495       0.002
   0.45454545  0.45454545  0.45454545       0.002
   0.45959596  0.45959596  0.45959596       0.002
   0.46464646  0.46464646  0.46464646       0.002
   0.46969697  0.46969697  0.46969697       0.002
   0.47474747  0.47474747  0.47474747       0.002
   0.47979798  0.47979798  0.47979798       0.002
   0.48484848  0.48484848  0.48484848       0.002
   0.48989899  0.48989899  0.48989899       0.002
   0.49494949  0.49494949  0.49494949       0.002
   0.50000000  0.50000000  0.50000000       0.002
   0.50000000  0.50000000  0.50000000       0.002
   0.50000000  0.49747475  0.50252525       0.002
   0.50000000  0.49494949  0.50505051       0.002
   0.50000000  0.49242424  0.50757576       0.002
   0.50000000  0.48989899  0.51010101       0.002
   0.50000000  0.48737374  0.51262626       0.002
   0.50000000  0.48484848  0.51515152       0.002
   0.50000000  0.48232323  0.51767677       0.002
   0.50000000  0.47979798  0.52020202       0.002
   0.50000000  0.47727273  0.52272727       0.002
   0.50000000  0.47474747  0.52525253       0.002
   0.50000000  0.47222222  0.52777778       0.002
   0.50000000  0.46969697  0.53030303       0.002
   0.50000000  0.46717172  0.53282828       0.002
   0.50000000  0.46464646  0.53535354       0.002
   0.50000000  0.46212121  0.53787879       0.002
   0.50000000  0.45959596  0.54040404       0.002
   0.50000000  0.45707071  0.54292929       0.002
   0.50000000  0.45454545  0.54545455       0.002
   0.50000000  0.45202020  0.54797980       0.002
   0.50000000  0.44949495  0.55050505       0.002
   0.50000000  0.44696970  0.55303030       0.002
   0.50000000  0.44444444  0.55555556       0.002
   0.50000000  0.44191919  0.55808081       0.002
   0.50000000  0.43939394  0.56060606       0.002
   0.50000000  0.43686869  0.56313131       0.002
   0.50000000  0.43434343  0.56565657       0.002
   0.50000000  0.43181818  0.56818182       0.002
   0.50000000  0.42929293  0.57070707       0.002
   0.50000000  0.42676768  0.57323232       0.002
   0.50000000  0.42424242  0.57575758       0.002
   0.50000000  0.42171717  0.57828283       0.002
   0.50000000  0.41919192  0.58080808       0.002
   0.50000000  0.41666667  0.58333333       0.002
   0.50000000  0.41414141  0.58585859       0.002
   0.50000000  0.41161616  0.58838384       0.002
   0.50000000  0.40909091  0.59090909       0.002
   0.50000000  0.40656566  0.59343434       0.002
   0.50000000  0.40404040  0.59595960       0.002
   0.50000000  0.40151515  0.59848485       0.002
   0.50000000  0.39898990  0.60101010       0.002
   0.50000000  0.39646465  0.60353535       0.002
   0.50000000  0.39393939  0.60606061       0.002
   0.50000000  0.39141414  0.60858586       0.002
   0.50000000  0.38888889  0.61111111       0.002
   0.50000000  0.38636364  0.61363636       0.002
   0.50000000  0.38383838  0.61616162       0.002
   0.50000000  0.38131313  0.61868687       0.002
   0.50000000  0.37878788  0.62121212       0.002
   0.50000000  0.37626263  0.62373737       0.002
   0.50000000  0.37373737  0.62626263       0.002
   0.50000000  0.37121212  0.62878788       0.002
   0.50000000  0.36868687  0.63131313       0.002
   0.50000000  0.36616162  0.63383838       0.002
   0.50000000  0.36363636  0.63636364       0.002
   0.50000000  0.36111111  0.63888889       0.002
   0.50000000  0.35858586  0.64141414       0.002
   0.50000000  0.35606061  0.64393939       0.002
   0.50000000  0.35353535  0.64646465       0.002
   0.50000000  0.35101010  0.64898990       0.002
   0.50000000  0.34848485  0.65151515       0.002
   0.50000000  0.34595960  0.65404040       0.002
   0.50000000  0.34343434  0.65656566       0.002
   0.50000000  0.34090909  0.65909091       0.002
   0.50000000  0.33838384  0.66161616       0.002
   0.50000000  0.33585859  0.66414141       0.002
   0.50000000  0.33333333  0.66666667       0.002
   0.50000000  0.33080808  0.66919192       0.002
   0.50000000  0.32828283  0.67171717       0.002
   0.50000000  0.32575758  0.67424242       0.002
   0.50000000  0.32323232  0.67676768       0.002
   0.50000000  0.32070707  0.67929293       0.002
   0.50000000  0.31818182  0.68181818       0.002
   0.50000000  0.31565657  0.68434343       0.002
   0.50000000  0.31313131  0.68686869       0.002
   0.50000000  0.31060606  0.68939394       0.002
   0.50000000  0.30808081  0.69191919       0.002
   0.50000000  0.30555556  0.69444444       0.002
   0.50000000  0.30303030  0.69696970       0.002
   0.50000000  0.30050505  0.69949495       0.002
   0.50000000  0.29797980  0.70202020       0.002
   0.50000000  0.29545455  0.70454545       0.002
   0.50000000  0.29292929  0.70707071       0.002
   0.50000000  0.29040404  0.70959596       0.002
   0.50000000  0.28787879  0.71212121       0.002
   0.50000000  0.28535354  0.71464646       0.002
   0.50000000  0.28282828  0.71717172       0.002
   0.50000000  0.28030303  0.71969697       0.002
   0.50000000  0.27777778  0.72222222       0.002
   0.50000000  0.27525253  0.72474747       0.002
   0.50000000  0.27272727  0.72727273       0.002
   0.50000000  0.27020202  0.72979798       0.002
   0.50000000  0.26767677  0.73232323       0.002
   0.50000000  0.26515152  0.73484848       0.002
   0.50000000  0.26262626  0.73737374       0.002
   0.50000000  0.26010101  0.73989899       0.002
   0.50000000  0.25757576  0.74242424       0.002
   0.50000000  0.25505051  0.74494949       0.002
   0.50000000  0.25252525  0.74747475       0.002
   0.50000000  0.25000000  0.75000000       0.002
   0.50000000  0.25000000  0.75000000       0.002
   0.50000000  0.24747475  0.74747475       0.002
   0.50000000  0.24494949  0.74494949       0.002
   0.50000000  0.24242424  0.74242424       0.002
   0.50000000  0.23989899  0.73989899       0.002
   0.50000000  0.23737374  0.73737374       0.002
   0.50000000  0.23484848  0.73484848       0.002
   0.50000000  0.23232323  0.73232323       0.002
   0.50000000  0.22979798  0.72979798       0.002
   0.50000000  0.22727273  0.72727273       0.002
   0.50000000  0.22474747  0.72474747       0.002
   0.50000000  0.22222222  0.72222222       0.002
   0.50000000  0.21969697  0.71969697       0.002
   0.50000000  0.21717172  0.71717172       0.002
   0.50000000  0.21464646  0.71464646       0.002
   0.50000000  0.21212121  0.71212121       0.002
   0.50000000  0.20959596  0.70959596       0.002
   0.50000000  0.20707071  0.70707071       0.002
   0.50000000  0.20454545  0.70454545       0.002
   0.50000000  0.20202020  0.70202020       0.002
   0.50000000  0.19949495  0.69949495       0.002
   0.50000000  0.19696970  0.69696970       0.002
   0.50000000  0.19444444  0.69444444       0.002
   0.50000000  0.19191919  0.69191919       0.002
   0.50000000  0.18939394  0.68939394       0.002
   0.50000000  0.18686869  0.68686869       0.002
   0.50000000  0.18434343  0.68434343       0.002
   0.50000000  0.18181818  0.68181818       0.002
   0.50000000  0.17929293  0.67929293       0.002
   0.50000000  0.17676768  0.67676768       0.002
   0.50000000  0.17424242  0.67424242       0.002
   0.50000000  0.17171717  0.67171717       0.002
   0.50000000  0.16919192  0.66919192       0.002
   0.50000000  0.16666667  0.66666667       0.002
   0.50000000  0.16414141  0.66414141       0.002
   0.50000000  0.16161616  0.66161616       0.002
   0.50000000  0.15909091  0.65909091       0.002
   0.50000000  0.15656566  0.65656566       0.002
   0.50000000  0.15404040  0.65404040       0.002
   0.50000000  0.15151515  0.65151515       0.002
   0.50000000  0.14898990  0.64898990       0.002
   0.50000000  0.14646465  0.64646465       0.002
   0.50000000  0.14393939  0.64393939       0.002
   0.50000000  0.14141414  0.64141414       0.002
   0.50000000  0.13888889  0.63888889       0.002
   0.50000000  0.13636364  0.63636364       0.002
   0.50000000  0.13383838  0.63383838       0.002
   0.50000000  0.13131313  0.63131313       0.002
   0.50000000  0.12878788  0.62878788       0.002
   0.50000000  0.12626263  0.62626263       0.002
   0.50000000  0.12373737  0.62373737       0.002
   0.50000000  0.12121212  0.62121212       0.002
   0.50000000  0.11868687  0.61868687       0.002
   0.50000000  0.11616162  0.61616162       0.002
   0.50000000  0.11363636  0.61363636       0.002
   0.50000000  0.11111111  0.61111111       0.002
   0.50000000  0.10858586  0.60858586       0.002
   0.50000000  0.10606061  0.60606061       0.002
   0.50000000  0.10353535  0.60353535       0.002
   0.50000000  0.10101010  0.60101010       0.002
   0.50000000  0.09848485  0.59848485       0.002
   0.50000000  0.09595960  0.59595960       0.002
   0.50000000  0.09343434  0.59343434       0.002
   0.50000000  0.09090909  0.59090909       0.002
   0.50000000  0.08838384  0.58838384       0.002
   0.50000000  0.08585859  0.58585859       0.002
   0.50000000  0.08333333  0.58333333       0.002
   0.50000000  0.08080808  0.58080808       0.002
   0.50000000  0.07828283  0.57828283       0.002
   0.50000000  0.07575758  0.57575758       0.002
   0.50000000  0.07323232  0.57323232       0.002
   0.50000000  0.07070707  0.57070707       0.002
   0.50000000  0.06818182  0.56818182       0.002
   0.50000000  0.06565657  0.56565657       0.002
   0.50000000  0.06313131  0.56313131       0.002
   0.50000000  0.06060606  0.56060606       0.002
   0.50000000  0.05808081  0.55808081       0.002
   0.50000000  0.05555556  0.55555556       0.002
   0.50000000  0.05303030  0.55303030       0.002
   0.50000000  0.05050505  0.55050505       0.002
   0.50000000  0.04797980  0.54797980       0.002
[...]
      4       2.8795      2.00000
      5      13.9139      0.00000
      6      13.9140      0.00000
      7      24.7134      0.00000
      8      24.7137      0.00000
      9      30.8622      0.00000
     10      30.8622      0.00000
     11      39.8313      0.00000
     12      39.8315      0.00000
     13      46.6338      0.00000
     14      46.6338      0.00000
     15      54.2036      0.00000
     16      54.2036      0.00000

 k-point   581 :       0.5000    0.0480    0.5480
  band No.  band energies     occupation 
      1      -3.2903      2.00000
      2      -3.2903      2.00000
      3       2.8976      2.00000
      4       2.8977      2.00000
      5      13.8789      0.00000
      6      13.8789      0.00000
      7      24.7310      0.00000
      8      24.7313      0.00000
      9      30.8814      0.00000
     10      30.8814      0.00000
     11      39.8628      0.00000
     12      39.8630      0.00000
     13      46.5689      0.00000
     14      46.5689      0.00000
     15      54.2822      0.00000
     16      54.2822      0.00000

 k-point   582 :       0.5000    0.0455    0.5455
  band No.  band energies     occupation 
      1      -3.2953      2.00000
      2      -3.2953      2.00000
      3       2.9150      2.00000
      4       2.9150      2.00000
      5      13.8455      0.00000
      6      13.8455      0.00000
      7      24.7476      0.00000
      8      24.7479      0.00000
      9      30.8998      0.00000
     10      30.8999      0.00000
     11      39.8936      0.00000
     12      39.8937      0.00000
     13      46.5062      0.00000
     14      46.5063      0.00000
     15      54.3613      0.00000
     16      54.3613      0.00000

 k-point   583 :       0.5000    0.0429    0.5429
  band No.  band energies     occupation 
      1      -3.3000      2.00000
      2      -3.3000      2.00000
      3       2.9315      2.00000
      4       2.9316      2.00000
      5      13.8137      0.00000
      6      13.8137      0.00000
      7      24.7633      0.00000
      8      24.7636      0.00000
      9      30.9174      0.00000
     10      30.9174      0.00000
     11      39.9235      0.00000
     12      39.9236      0.00000
     13      46.4461      0.00000
     14      46.4461      0.00000
     15      54.4407      0.00000
     16      54.4408      0.00000

 k-point   584 :       0.5000    0.0404    0.5404
  band No.  band energies     occupation 
      1      -3.3045      2.00000
      2      -3.3045      2.00000
      3       2.9473      2.00000
      4       2.9473      2.00000
      5      13.7837      0.00000
      6      13.7837      0.00000
      7      24.7781      0.00000
      8      24.7784      0.00000
      9      30.9341      0.00000
     10      30.9342      0.00000
     11      39.9525      0.00000
     12      39.9526      0.00000
     13      46.3885      0.00000
     14      46.3885      0.00000
     15      54.5205      0.00000
     16      54.5205      0.00000

 k-point   585 :       0.5000    0.0379    0.5379
  band No.  band energies     occupation 
      1      -3.3087      2.00000
      2      -3.3087      2.00000
      3       2.9621      2.00000
      4       2.9622      2.00000
      5      13.7553      0.00000
      6      13.7553      0.00000
      7      24.7918      0.00000
      8      24.7922      0.00000
      9      30.9499      0.00000
     10      30.9500      0.00000
     11      39.9804      0.00000
     12      39.9805      0.00000
     13      46.3335      0.00000
     14      46.3335      0.00000
     15      54.6005      0.00000
     16      54.6005      0.00000

 k-point   586 :       0.5000    0.0354    0.5354
  band No.  band energies     occupation 
      1      -3.3126      2.00000
      2      -3.3126      2.00000
      3       2.9762      2.00000
      4       2.9762      2.00000
      5      13.7287      0.00000
      6      13.7287      0.00000
      7      24.8047      0.00000
      8      24.8050      0.00000
      9      30.9649      0.00000
     10      30.9649      0.00000
     11      40.0071      0.00000
     12      40.0073      0.00000
     13      46.2814      0.00000
     14      46.2814      0.00000
     15      54.6805      0.00000
     16      54.6806      0.00000

 k-point   587 :       0.5000    0.0328    0.5328
  band No.  band energies     occupation 
      1      -3.3163      2.00000
      2      -3.3163      2.00000
      3       2.9893      2.00000
      4       2.9894      2.00000
      5      13.7039      0.00000
      6      13.7039      0.00000
      7      24.8171      0.00000
      8      24.8174      0.00000
      9      30.9793      0.00000
     10      30.9793      0.00000
     11      40.0331      0.00000
     12      40.0332      0.00000
     13      46.2324      0.00000
     14      46.2324      0.00000
     15      54.7607      0.00000
     16      54.7607      0.00000

 k-point   588 :       0.5000    0.0303    0.5303
  band No.  band energies     occupation 
      1      -3.3197      2.00000
      2      -3.3197      2.00000
      3       3.0016      2.00000
      4       3.0016      2.00000
      5      13.6808      0.00000
      6      13.6808      0.00000
      7      24.8281      0.00000
      8      24.8284      0.00000
      9      30.9923      0.00000
     10      30.9923      0.00000
     11      40.0572      0.00000
     12      40.0573      0.00000
     13      46.1862      0.00000
     14      46.1862      0.00000
     15      54.8406      0.00000
     16      54.8406      0.00000

 k-point   589 :       0.5000    0.0278    0.5278
  band No.  band energies     occupation 
      1      -3.3228      2.00000
      2      -3.3228      2.00000
      3       3.0129      2.00000
      4       3.0130      2.00000
      5      13.6594      0.00000
      6      13.6594      0.00000
      7      24.8382      0.00000
      8      24.8385      0.00000
      9      31.0043      0.00000
     10      31.0044      0.00000
     11      40.0799      0.00000
     12      40.0800      0.00000
     13      46.1432      0.00000
     14      46.1432      0.00000
     15      54.9202      0.00000
     16      54.9202      0.00000

 k-point   590 :       0.5000    0.0253    0.5253
  band No.  band energies     occupation 
      1      -3.3257      2.00000
      2      -3.3257      2.00000
      3       3.0233      2.00000
      4       3.0234      2.00000
      5      13.6399      0.00000
      6      13.6399      0.00000
      7      24.8474      0.00000
      8      24.8477      0.00000
      9      31.0154      0.00000
     10      31.0154      0.00000
     11      40.1010      0.00000
     12      40.1011      0.00000
     13      46.1035      0.00000
     14      46.1035      0.00000
     15      54.9993      0.00000
     16      54.9993      0.00000

 k-point   591 :       0.5000    0.0227    0.5227
  band No.  band energies     occupation 
      1      -3.3283      2.00000
      2      -3.3283      2.00000
      3       3.0328      2.00000
      4       3.0328      2.00000
      5      13.6222      0.00000
      6      13.6222      0.00000
      7      24.8557      0.00000
      8      24.8560      0.00000
      9      31.0254      0.00000
     10      31.0255      0.00000
     11      40.1204      0.00000
     12      40.1205      0.00000
     13      46.0672      0.00000
     14      46.0672      0.00000
     15      55.0776      0.00000
     16      55.0776      0.00000

 k-point   592 :       0.5000    0.0202    0.5202
  band No.  band energies     occupation 
      1      -3.3307      2.00000
      2      -3.3307      2.00000
      3       3.0413      2.00000
      4       3.0413      2.00000
      5      13.6063      0.00000
      6      13.6063      0.00000
      7      24.8631      0.00000
      8      24.8634      0.00000
      9      31.0345      0.00000
     10      31.0345      0.00000
     11      40.1381      0.00000
     12      40.1382      0.00000
     13      46.0344      0.00000
     14      46.0344      0.00000
     15      55.1548      0.00000
     16      55.1549      0.00000

 k-point   593 :       0.5000    0.0177    0.5177
  band No.  band energies     occupation 
      1      -3.3327      2.00000
      2      -3.3327      2.00000
      3       3.0488      2.00000
      4       3.0489      2.00000
      5      13.5923      0.00000
      6      13.5923      0.00000
      7      24.8696      0.00000
      8      24.8699      0.00000
      9      31.0425      0.00000
     10      31.0425      0.00000
     11      40.1539      0.00000
     12      40.1540      0.00000
     13      46.0052      0.00000
     14      46.0052      0.00000
     15      55.2305      0.00000
     16      55.2306      0.00000

 k-point   594 :       0.5000    0.0152    0.5152
  band No.  band energies     occupation 
      1      -3.3345      2.00000
      2      -3.3345      2.00000
      3       3.0554      2.00000
      4       3.0554      2.00000
      5      13.5801      0.00000
      6      13.5801      0.00000
      7      24.8753      0.00000
      8      24.8756      0.00000
      9      31.0494      0.00000
     10      31.0494      0.00000
     11      40.1678      0.00000
     12      40.1679      0.00000
     13      45.9797      0.00000
     14      45.9797      0.00000
     15      55.3041      0.00000
     16      55.3042      0.00000

 k-point   595 :       0.5000    0.0126    0.5126
  band No.  band energies     occupation 
      1      -3.3360      2.00000
      2      -3.3360      2.00000
      3       3.0609      2.00000
      4       3.0610      2.00000
      5      13.5698      0.00000
      6      13.5698      0.00000
      7      24.8800      0.00000
      8      24.8804      0.00000
      9      31.0553      0.00000
     10      31.0553      0.00000
     11      40.1797      0.00000
     12      40.1798      0.00000
     13      45.9580      0.00000
     14      45.9580      0.00000
     15      55.3749      0.00000
     16      55.3750      0.00000

 k-point   596 :       0.5000    0.0101    0.5101
  band No.  band energies     occupation 
      1      -3.3373      2.00000
      2      -3.3373      2.00000
      3       3.0655      2.00000
      4       3.0655      2.00000
      5      13.5613      0.00000
      6      13.5613      0.00000
      7      24.8839      0.00000
      8      24.8843      0.00000
      9      31.0602      0.00000
     10      31.0602      0.00000
     11      40.1895      0.00000
     12      40.1896      0.00000
     13      45.9401      0.00000
     14      45.9401      0.00000
     15      55.4414      0.00000
     16      55.4415      0.00000

 k-point   597 :       0.5000    0.0076    0.5076
  band No.  band energies     occupation 
      1      -3.3382      2.00000
      2      -3.3382      2.00000
      3       3.0690      2.00000
      4       3.0691      2.00000
      5      13.5547      0.00000
      6      13.5547      0.00000
      7      24.8870      0.00000
      8      24.8873      0.00000
      9      31.0639      0.00000
     10      31.0639      0.00000
     11      40.1972      0.00000
     12      40.1973      0.00000
     13      45.9261      0.00000
     14      45.9261      0.00000
     15      55.5017      0.00000
     16      55.5018      0.00000

 k-point   598 :       0.5000    0.0051    0.5051
  band No.  band energies     occupation 
      1      -3.3389      2.00000
      2      -3.3389      2.00000
      3       3.0716      2.00000
      4       3.0716      2.00000
      5      13.5500      0.00000
      6      13.5500      0.00000
      7      24.8891      0.00000
      8      24.8895      0.00000
      9      31.0666      0.00000
     10      31.0666      0.00000
     11      40.2027      0.00000
     12      40.2028      0.00000
     13      45.9161      0.00000
     14      45.9161      0.00000
     15      55.5523      0.00000
     16      55.5525      0.00000

 k-point   599 :       0.5000    0.0025    0.5025
  band No.  band energies     occupation 
      1      -3.3393      2.00000
      2      -3.3393      2.00000
      3       3.0731      2.00000
      4       3.0731      2.00000
      5      13.5472      0.00000
      6      13.5472      0.00000
      7      24.8904      0.00000
      8      24.8908      0.00000
      9      31.0682      0.00000
     10      31.0683      0.00000
     11      40.2061      0.00000
     12      40.2062      0.00000
     13      45.9101      0.00000
     14      45.9101      0.00000
     15      55.5876      0.00000
     16      55.5877      0.00000

 k-point   600 :       0.5000    0.0000    0.5000
  band No.  band energies     occupation 
      1      -3.3395      2.00000
      2      -3.3395      2.00000
      3       3.0736      2.00000
      4       3.0736      2.00000
      5      13.5463      0.00000
      6      13.5463      0.00000
      7      24.8909      0.00000
      8      24.8912      0.00000
      9      31.0688      0.00000
     10      31.0688      0.00000
     11      40.2072      0.00000
     12      40.2073      0.00000
     13      45.9081      0.00000
     14      45.9081      0.00000
     15      55.6006      0.00000
     16      55.6007      0.00000


--------------------------------------------------------------------------------------------------------


 soft charge-density along one line, spin component           1
         0         1         2         3         4         5         6         7         8         9
 total charge-density along one line
 
 pseudopotential strength for first ion, spin component:           1
  9.478  -0.004  -0.000  -0.000  -0.000   0.000   0.000   0.000
 -0.004  -0.002   0.000   0.000   0.000   0.000   0.000   0.000
 -0.000   0.000  -3.686  -0.000  -0.000  -0.007  -0.000  -0.000
 -0.000   0.000  -0.000  -3.686  -0.000  -0.000  -0.007  -0.000
 -0.000   0.000  -0.000  -0.000  -3.686  -0.000  -0.000  -0.007
  0.000   0.000  -0.007  -0.000  -0.000  -0.758  -0.000  -0.000
  0.000   0.000  -0.000  -0.007  -0.000  -0.000  -0.758  -0.000
  0.000   0.000  -0.000  -0.000  -0.007  -0.000  -0.000  -0.758
 total augmentation occupancy for first ion, spin component:           1
  1.338  -0.986   0.000  -0.000   0.000  -0.000   0.000  -0.000
 -0.986   0.949  -0.000   0.000   0.000  -0.000  -0.000   0.000
  0.000  -0.000   1.117   0.000   0.000   0.157   0.000   0.000
  0.000  -0.000  -0.000   1.117   0.000   0.000   0.157  -0.000
  0.000  -0.000  -0.000  -0.000   1.117   0.000   0.000   0.157
 -0.000  -0.000   0.157  -0.000   0.000   0.029  -0.000  -0.000
  0.000  -0.000   0.000   0.157  -0.000   0.000   0.029   0.000
 -0.000   0.000  -0.000   0.000   0.157   0.000  -0.000   0.029


------------------------ aborting loop because EDIFF is reached ----------------------------------------


    CHARGE:  cpu time    0.0250: real time    0.0257
    FORLOC:  cpu time    0.0000: real time    0.0001
    FORNL :  cpu time    0.0430: real time    0.0429
    STRESS:  cpu time    0.6189: real time    0.6183
    FORHAR:  cpu time    0.0000: real time    0.0005
    MIXING:  cpu time    0.0000: real time    0.0002
    OFIELD:  cpu time    0.0000: real time    0.0000

  FORCE on cell =-STRESS in cart. coord.  units (eV):
  Direction    XX          YY          ZZ          XY          YZ          ZX
  --------------------------------------------------------------------------------------
  Alpha Z    26.91360    26.91360    26.91360
  Ewald    -113.48863  -113.48863  -113.48863     0.00000     0.00000    -0.00000
  Hartree     9.52906     9.52906     9.52906    -0.00000    -0.00000    -0.00000
  E(xc)     -29.64620   -29.64620   -29.64620     0.00000     0.00000     0.00000
  Local     -12.44974   -12.44974   -12.44974     0.00005     0.00005     0.00005
  n-local    -9.12521    -8.70968    -8.40622     0.12450     0.26382     0.28129
  augment    -0.76028    -0.76028    -0.76028    -0.00003    -0.00003    -0.00003
  Kinetic   127.58772   130.92693   127.48059    -1.59192    -2.50879    -2.03970
  Fock        0.00000     0.00000     0.00000     0.00000     0.00000     0.00000
  -------------------------------------------------------------------------------------
  Total       0.01585     0.01585     0.01585     0.00000     0.00000     0.00000
  in kB       2.09672     2.09672     2.09672     0.00000     0.00000     0.00000
  external pressure =        2.10 kB  Pullay stress =        0.00 kB


 VOLUME and BASIS-vectors are now :
 -----------------------------------------------------------------------------
  energy-cutoff  :      500.00
  volume of cell :       12.11
      direct lattice vectors                 reciprocal lattice vectors
     1.822650248  1.822650248  0.000000000     0.274325807  0.274325807 -0.274325807
     0.000000000  1.822650248  1.822650248    -0.274325807  0.274325807  0.274325807
     1.822650248  0.000000000  1.822650248     0.274325807 -0.274325807  0.274325807

  length of vectors
     2.577616701  2.577616701  2.577616701     0.475146235  0.475146235  0.475146235


 FORCES acting on ions
    electron-ion (+dipol)            ewald-force                    non-local-force                 convergence-correction
 -----------------------------------------------------------------------------------------------
   0.341E-05 0.289E-05 0.341E-05   -.197E-14 -.661E-14 -.772E-14   -.173E-16 0.347E-17 0.173E-16   0.158E-07 0.158E-07 0.158E-07
   -.341E-05 -.289E-05 -.341E-05   0.286E-14 0.765E-14 0.766E-14   0.347E-17 0.104E-16 -.104E-16   -.158E-07 -.158E-07 -.158E-07
 -----------------------------------------------------------------------------------------------
   -.721E-13 -.370E-13 -.682E-13   0.897E-15 0.104E-14 -.599E-16   -.139E-16 0.139E-16 0.694E-17   0.535E-14 0.682E-14 -.707E-14
 
 
 POSITION                                       TOTAL-FORCE (eV/Angst)
 -----------------------------------------------------------------------------------
      0.00000      0.00000      0.00000         0.000000      0.000000      0.000000
      0.91133      0.91133      0.91133        -0.000000     -0.000000     -0.000000
 -----------------------------------------------------------------------------------
    total drift:                               -0.000000     -0.000000     -0.000000


--------------------------------------------------------------------------------------------------------



  FREE ENERGIE OF THE ION-ELECTRON SYSTEM (eV)
  ---------------------------------------------------
  free  energy   TOTEN  =       -15.69228816 eV

  energy  without entropy=      -15.69228816  energy(sigma->0) =      -15.69228816
 


--------------------------------------------------------------------------------------------------------


    POTLOK:  cpu time    0.0030: real time    0.0033


--------------------------------------------------------------------------------------------------------


 writing wavefunctions
     LOOP+:  cpu time   25.9401: real time   26.1693
    4ORBIT:  cpu time    0.0000: real time    0.0000

 total amount of memory used by VASP on root node    46558. kBytes
========================================================================

   base      :      30000. kBytes
   nonl-proj :      12913. kBytes
   fftplans  :         69. kBytes
   grid      :        191. kBytes
   one-center:          6. kBytes
   wavefun   :       3379. kBytes
 
  
  
 General timing and accounting informations for this job:
 ========================================================
  
                  Total CPU time used (sec):       26.951
                            User time (sec):       26.746
                          System time (sec):        0.205
                         Elapsed time (sec):       27.694
  
                   Maximum memory used (kb):       93672.
                   Average memory used (kb):           0.
  
                          Minor page faults:        14342
                          Major page faults:            0
                 Voluntary context switches:         3181
