<?xml version="1.0" encoding="ISO-8859-1"?>
<modeling>
 <generator>
  <i name="program" type="string">vasp </i>
  <i name="version" type="string">5.4.1  </i>
  <i name="subversion" type="string">24Jun15 (build May 02 2016 14:41:14) complex                          parallel </i>
  <i name="platform" type="string">IFC91_ompi </i>
  <i name="date" type="string">2022 05 13 </i>
  <i name="time" type="string">12:24:40 </i>
 </generator>
 <incar>
  <i type="string" name="SYSTEM"> FCC Silicon</i>
  <i type="int" name="ISTART">     0</i>
  <i type="string" name="PREC">normal</i>
  <i type="string" name="ALGO"> Normal</i>
  <i type="int" name="ICHARG">     2</i>
  <i type="int" name="NELM">   100</i>
  <i type="int" name="NELMIN">     4</i>
  <i name="EDIFF">      0.00000100</i>
  <i name="ENCUT">    500.00000000</i>
  <i type="logical" name="LREAL"> F  </i>
  <i type="int" name="ISMEAR">     0</i>
  <i name="SIGMA">      0.10000000</i>
  <v type="int" name="KPOINT_BSE">    -1     0     0     0</v>
  <i type="int" name="NELM">   100</i>
 </incar>
 <kpoints>
  <generation param="listgenerated">
   <i name="divisions" type="int">     100 </i>
   <v>       0.00000000       0.00000000       0.00000000 </v>
   <v>       0.50000000       0.00000000       0.50000000 </v>
   <v>       0.37500000       0.37500000       0.75000000 </v>
   <v>       0.00000000       0.00000000       0.00000000 </v>
   <v>       0.50000000       0.50000000       0.50000000 </v>
   <v>       0.50000000       0.25000000       0.75000000 </v>
   <v>       0.50000000       0.00000000       0.50000000 </v>
  </generation>
  <varray name="kpointlist" >
   <v>       0.00000000       0.00000000       0.00000000 </v>
   <v>       0.00505051       0.00000000       0.00505051 </v>
   <v>       0.01010101       0.00000000       0.01010101 </v>
   <v>       0.01515152       0.00000000       0.01515152 </v>
   <v>       0.02020202       0.00000000       0.02020202 </v>
   <v>       0.02525253       0.00000000       0.02525253 </v>
   <v>       0.03030303       0.00000000       0.03030303 </v>
   <v>       0.03535354       0.00000000       0.03535354 </v>
   <v>       0.04040404       0.00000000       0.04040404 </v>
   <v>       0.04545455       0.00000000       0.04545455 </v>
   <v>       0.05050505       0.00000000       0.05050505 </v>
   <v>       0.05555556       0.00000000       0.05555556 </v>
   <v>       0.06060606       0.00000000       0.06060606 </v>
   <v>       0.06565657       0.00000000       0.06565657 </v>
   <v>       0.07070707       0.00000000       0.07070707 </v>
   <v>       0.07575758       0.00000000       0.07575758 </v>
   <v>       0.08080808       0.00000000       0.08080808 </v>
   <v>       0.08585859       0.00000000       0.08585859 </v>
   <v>       0.09090909       0.00000000       0.09090909 </v>
   <v>       0.09595960       0.00000000       0.09595960 </v>
   <v>       0.10101010       0.00000000       0.10101010 </v>
   <v>       0.10606061       0.00000000       0.10606061 </v>
   <v>       0.11111111       0.00000000       0.11111111 </v>
   <v>       0.11616162       0.00000000       0.11616162 </v>
   <v>       0.12121212       0.00000000       0.12121212 </v>
   <v>       0.12626263       0.00000000       0.12626263 </v>
   <v>       0.13131313       0.00000000       0.13131313 </v>
   <v>       0.13636364       0.00000000       0.13636364 </v>
   <v>       0.14141414       0.00000000       0.14141414 </v>
   <v>       0.14646465       0.00000000       0.14646465 </v>
   <v>       0.15151515       0.00000000       0.15151515 </v>
   <v>       0.15656566       0.00000000       0.15656566 </v>
   <v>       0.16161616       0.00000000       0.16161616 </v>
   <v>       0.16666667       0.00000000       0.16666667 </v>
   <v>       0.17171717       0.00000000       0.17171717 </v>
   <v>       0.17676768       0.00000000       0.17676768 </v>
   <v>       0.18181818       0.00000000       0.18181818 </v>
   <v>       0.18686869       0.00000000       0.18686869 </v>
   <v>       0.19191919       0.00000000       0.19191919 </v>
   <v>       0.19696970       0.00000000       0.19696970 </v>
   <v>       0.20202020       0.00000000       0.20202020 </v>
   <v>       0.20707071       0.00000000       0.20707071 </v>
   <v>       0.21212121       0.00000000       0.21212121 </v>
   <v>       0.21717172       0.00000000       0.21717172 </v>
   <v>       0.22222222       0.00000000       0.22222222 </v>
   <v>       0.22727273       0.00000000       0.22727273 </v>
   <v>       0.23232323       0.00000000       0.23232323 </v>
   <v>       0.23737374       0.00000000       0.23737374 </v>
   <v>       0.24242424       0.00000000       0.24242424 </v>
   <v>       0.24747475       0.00000000       0.24747475 </v>
   <v>       0.25252525       0.00000000       0.25252525 </v>
   <v>       0.25757576       0.00000000       0.25757576 </v>
   <v>       0.26262626       0.00000000       0.26262626 </v>
   <v>       0.26767677       0.00000000       0.26767677 </v>
   <v>       0.27272727       0.00000000       0.27272727 </v>
   <v>       0.27777778       0.00000000       0.27777778 </v>
   <v>       0.28282828       0.00000000       0.28282828 </v>
   <v>       0.28787879       0.00000000       0.28787879 </v>
   <v>       0.29292929       0.00000000       0.29292929 </v>
   <v>       0.29797980       0.00000000       0.29797980 </v>
   <v>       0.30303030       0.00000000       0.30303030 </v>
   <v>       0.30808081       0.00000000       0.30808081 </v>
   <v>       0.31313131       0.00000000       0.31313131 </v>
   <v>       0.31818182       0.00000000       0.31818182 </v>
   <v>       0.32323232       0.00000000       0.32323232 </v>
   <v>       0.32828283       0.00000000       0.32828283 </v>
   <v>       0.33333333       0.00000000       0.33333333 </v>
   <v>       0.33838384       0.00000000       0.33838384 </v>
   <v>       0.34343434       0.00000000       0.34343434 </v>
   <v>       0.34848485       0.00000000       0.34848485 </v>
   <v>       0.35353535       0.00000000       0.35353535 </v>
   <v>       0.35858586       0.00000000       0.35858586 </v>
   <v>       0.36363636       0.00000000       0.36363636 </v>
   <v>       0.36868687       0.00000000       0.36868687 </v>
   <v>       0.37373737       0.00000000       0.37373737 </v>
   <v>       0.37878788       0.00000000       0.37878788 </v>
   <v>       0.38383838       0.00000000       0.38383838 </v>
   <v>       0.38888889       0.00000000       0.38888889 </v>
   <v>       0.39393939       0.00000000       0.39393939 </v>
   <v>       0.39898990       0.00000000       0.39898990 </v>
   <v>       0.40404040       0.00000000       0.40404040 </v>
   <v>       0.40909091       0.00000000       0.40909091 </v>
   <v>       0.41414141       0.00000000       0.41414141 </v>
   <v>       0.41919192       0.00000000       0.41919192 </v>
   <v>       0.42424242       0.00000000       0.42424242 </v>
   <v>       0.42929293       0.00000000       0.42929293 </v>
   <v>       0.43434343       0.00000000       0.43434343 </v>
   <v>       0.43939394       0.00000000       0.43939394 </v>
   <v>       0.44444444       0.00000000       0.44444444 </v>
   <v>       0.44949495       0.00000000       0.44949495 </v>
   <v>       0.45454545       0.00000000       0.45454545 </v>
   <v>       0.45959596       0.00000000       0.45959596 </v>
   <v>       0.46464646       0.00000000       0.46464646 </v>
   <v>       0.46969697       0.00000000       0.46969697 </v>
   <v>       0.47474747       0.00000000       0.47474747 </v>
   <v>       0.47979798       0.00000000       0.47979798 </v>
   <v>       0.48484848       0.00000000       0.48484848 </v>
   <v>       0.48989899       0.00000000       0.48989899 </v>
   <v>       0.49494949       0.00000000       0.49494949 </v>
   <v>       0.50000000       0.00000000       0.50000000 </v>
   <v>       0.50000000       0.00000000       0.50000000 </v>
   <v>       0.50126263       0.00252525       0.50126263 </v>
   <v>       0.50252525       0.00505051       0.50252525 </v>
   <v>       0.50378788       0.00757576       0.50378788 </v>
   <v>       0.50505051       0.01010101       0.50505051 </v>
   <v>       0.50631313       0.01262626       0.50631313 </v>
   <v>       0.50757576       0.01515152       0.50757576 </v>
   <v>       0.50883838       0.01767677       0.50883838 </v>
   <v>       0.51010101       0.02020202       0.51010101 </v>
   <v>       0.51136364       0.02272727       0.51136364 </v>
   <v>       0.51262626       0.02525253       0.51262626 </v>
   <v>       0.51388889       0.02777778       0.51388889 </v>
   <v>       0.51515152       0.03030303       0.51515152 </v>
   <v>       0.51641414       0.03282828       0.51641414 </v>
   <v>       0.51767677       0.03535354       0.51767677 </v>
   <v>       0.51893939       0.03787879       0.51893939 </v>
   <v>       0.52020202       0.04040404       0.52020202 </v>
   <v>       0.52146465       0.04292929       0.52146465 </v>
   <v>       0.52272727       0.04545455       0.52272727 </v>
   <v>       0.52398990       0.04797980       0.52398990 </v>
   <v>       0.52525253       0.05050505       0.52525253 </v>
   <v>       0.52651515       0.05303030       0.52651515 </v>
   <v>       0.52777778       0.05555556       0.52777778 </v>
   <v>       0.52904040       0.05808081       0.52904040 </v>
   <v>       0.53030303       0.06060606       0.53030303 </v>
   <v>       0.53156566       0.06313131       0.53156566 </v>
   <v>       0.53282828       0.06565657       0.53282828 </v>
   <v>       0.53409091       0.06818182       0.53409091 </v>
   <v>       0.53535354       0.07070707       0.53535354 </v>
   <v>       0.53661616       0.07323232       0.53661616 </v>
   <v>       0.53787879       0.07575758       0.53787879 </v>
   <v>       0.53914141       0.07828283       0.53914141 </v>
   <v>       0.54040404       0.08080808       0.54040404 </v>
   <v>       0.54166667       0.08333333       0.54166667 </v>
   <v>       0.54292929       0.08585859       0.54292929 </v>
   <v>       0.54419192       0.08838384       0.54419192 </v>
   <v>       0.54545455       0.09090909       0.54545455 </v>
   <v>       0.54671717       0.09343434       0.54671717 </v>
   <v>       0.54797980       0.09595960       0.54797980 </v>
   <v>       0.54924242       0.09848485       0.54924242 </v>
   <v>       0.55050505       0.10101010       0.55050505 </v>
   <v>       0.55176768       0.10353535       0.55176768 </v>
   <v>       0.55303030       0.10606061       0.55303030 </v>
   <v>       0.55429293       0.10858586       0.55429293 </v>
   <v>       0.55555556       0.11111111       0.55555556 </v>
   <v>       0.55681818       0.11363636       0.55681818 </v>
   <v>       0.55808081       0.11616162       0.55808081 </v>
   <v>       0.55934343       0.11868687       0.55934343 </v>
   <v>       0.56060606       0.12121212       0.56060606 </v>
   <v>       0.56186869       0.12373737       0.56186869 </v>
   <v>       0.56313131       0.12626263       0.56313131 </v>
   <v>       0.56439394       0.12878788       0.56439394 </v>
   <v>       0.56565657       0.13131313       0.56565657 </v>
   <v>       0.56691919       0.13383838       0.56691919 </v>
   <v>       0.56818182       0.13636364       0.56818182 </v>
   <v>       0.56944444       0.13888889       0.56944444 </v>
   <v>       0.57070707       0.14141414       0.57070707 </v>
   <v>       0.57196970       0.14393939       0.57196970 </v>
   <v>       0.57323232       0.14646465       0.57323232 </v>
   <v>       0.57449495       0.14898990       0.57449495 </v>
   <v>       0.57575758       0.15151515       0.57575758 </v>
   <v>       0.57702020       0.15404040       0.57702020 </v>
   <v>       0.57828283       0.15656566       0.57828283 </v>
   <v>       0.57954545       0.15909091       0.57954545 </v>
   <v>       0.58080808       0.16161616       0.58080808 </v>
   <v>       0.58207071       0.16414141       0.58207071 </v>
   <v>       0.58333333       0.16666667       0.58333333 </v>
   <v>       0.58459596       0.16919192       0.58459596 </v>
   <v>       0.58585859       0.17171717       0.58585859 </v>
   <v>       0.58712121       0.17424242       0.58712121 </v>
   <v>       0.58838384       0.17676768       0.58838384 </v>
   <v>       0.58964646       0.17929293       0.58964646 </v>
   <v>       0.59090909       0.18181818       0.59090909 </v>
   <v>       0.59217172       0.18434343       0.59217172 </v>
   <v>       0.59343434       0.18686869       0.59343434 </v>
   <v>       0.59469697       0.18939394       0.59469697 </v>
   <v>       0.59595960       0.19191919       0.59595960 </v>
   <v>       0.59722222       0.19444444       0.59722222 </v>
   <v>       0.59848485       0.19696970       0.59848485 </v>
   <v>       0.59974747       0.19949495       0.59974747 </v>
   <v>       0.60101010       0.20202020       0.60101010 </v>
   <v>       0.60227273       0.20454545       0.60227273 </v>
   <v>       0.60353535       0.20707071       0.60353535 </v>
   <v>       0.60479798       0.20959596       0.60479798 </v>
   <v>       0.60606061       0.21212121       0.60606061 </v>
   <v>       0.60732323       0.21464646       0.60732323 </v>
   <v>       0.60858586       0.21717172       0.60858586 </v>
   <v>       0.60984848       0.21969697       0.60984848 </v>
   <v>       0.61111111       0.22222222       0.61111111 </v>
   <v>       0.61237374       0.22474747       0.61237374 </v>
   <v>       0.61363636       0.22727273       0.61363636 </v>
   <v>       0.61489899       0.22979798       0.61489899 </v>
   <v>       0.61616162       0.23232323       0.61616162 </v>
   <v>       0.61742424       0.23484848       0.61742424 </v>
   <v>       0.61868687       0.23737374       0.61868687 </v>
   <v>       0.61994949       0.23989899       0.61994949 </v>
   <v>       0.62121212       0.24242424       0.62121212 </v>
   <v>       0.62247475       0.24494949       0.62247475 </v>
   <v>       0.62373737       0.24747475       0.62373737 </v>
   <v>       0.62500000       0.25000000       0.62500000 </v>
   <v>       0.37500000       0.37500000       0.75000000 </v>
   <v>       0.37121212       0.37121212       0.74242424 </v>
   <v>       0.36742424       0.36742424       0.73484848 </v>
   <v>       0.36363636       0.36363636       0.72727273 </v>
   <v>       0.35984848       0.35984848       0.71969697 </v>
   <v>       0.35606061       0.35606061       0.71212121 </v>
   <v>       0.35227273       0.35227273       0.70454545 </v>
   <v>       0.34848485       0.34848485       0.69696970 </v>
   <v>       0.34469697       0.34469697       0.68939394 </v>
   <v>       0.34090909       0.34090909       0.68181818 </v>
   <v>       0.33712121       0.33712121       0.67424242 </v>
   <v>       0.33333333       0.33333333       0.66666667 </v>
   <v>       0.32954545       0.32954545       0.65909091 </v>
   <v>       0.32575758       0.32575758       0.65151515 </v>
   <v>       0.32196970       0.32196970       0.64393939 </v>
   <v>       0.31818182       0.31818182       0.63636364 </v>
   <v>       0.31439394       0.31439394       0.62878788 </v>
   <v>       0.31060606       0.31060606       0.62121212 </v>
   <v>       0.30681818       0.30681818       0.61363636 </v>
   <v>       0.30303030       0.30303030       0.60606061 </v>
   <v>       0.29924242       0.29924242       0.59848485 </v>
   <v>       0.29545455       0.29545455       0.59090909 </v>
   <v>       0.29166667       0.29166667       0.58333333 </v>
   <v>       0.28787879       0.28787879       0.57575758 </v>
   <v>       0.28409091       0.28409091       0.56818182 </v>
   <v>       0.28030303       0.28030303       0.56060606 </v>
   <v>       0.27651515       0.27651515       0.55303030 </v>
   <v>       0.27272727       0.27272727       0.54545455 </v>
   <v>       0.26893939       0.26893939       0.53787879 </v>
   <v>       0.26515152       0.26515152       0.53030303 </v>
   <v>       0.26136364       0.26136364       0.52272727 </v>
   <v>       0.25757576       0.25757576       0.51515152 </v>
   <v>       0.25378788       0.25378788       0.50757576 </v>
   <v>       0.25000000       0.25000000       0.50000000 </v>
   <v>       0.24621212       0.24621212       0.49242424 </v>
   <v>       0.24242424       0.24242424       0.48484848 </v>
   <v>       0.23863636       0.23863636       0.47727273 </v>
   <v>       0.23484848       0.23484848       0.46969697 </v>
   <v>       0.23106061       0.23106061       0.46212121 </v>
   <v>       0.22727273       0.22727273       0.45454545 </v>
   <v>       0.22348485       0.22348485       0.44696970 </v>
   <v>       0.21969697       0.21969697       0.43939394 </v>
   <v>       0.21590909       0.21590909       0.43181818 </v>
   <v>       0.21212121       0.21212121       0.42424242 </v>
   <v>       0.20833333       0.20833333       0.41666667 </v>
   <v>       0.20454545       0.20454545       0.40909091 </v>
   <v>       0.20075758       0.20075758       0.40151515 </v>
   <v>       0.19696970       0.19696970       0.39393939 </v>
   <v>       0.19318182       0.19318182       0.38636364 </v>
   <v>       0.18939394       0.18939394       0.37878788 </v>
   <v>       0.18560606       0.18560606       0.37121212 </v>
   <v>       0.18181818       0.18181818       0.36363636 </v>
   <v>       0.17803030       0.17803030       0.35606061 </v>
   <v>       0.17424242       0.17424242       0.34848485 </v>
   <v>       0.17045455       0.17045455       0.34090909 </v>
   <v>       0.16666667       0.16666667       0.33333333 </v>
   <v>       0.16287879       0.16287879       0.32575758 </v>
   <v>       0.15909091       0.15909091       0.31818182 </v>
   <v>       0.15530303       0.15530303       0.31060606 </v>
   <v>       0.15151515       0.15151515       0.30303030 </v>
   <v>       0.14772727       0.14772727       0.29545455 </v>
   <v>       0.14393939       0.14393939       0.28787879 </v>
   <v>       0.14015152       0.14015152       0.28030303 </v>
   <v>       0.13636364       0.13636364       0.27272727 </v>
   <v>       0.13257576       0.13257576       0.26515152 </v>
   <v>       0.12878788       0.12878788       0.25757576 </v>
   <v>       0.12500000       0.12500000       0.25000000 </v>
   <v>       0.12121212       0.12121212       0.24242424 </v>
   <v>       0.11742424       0.11742424       0.23484848 </v>
   <v>       0.11363636       0.11363636       0.22727273 </v>
   <v>       0.10984848       0.10984848       0.21969697 </v>
   <v>       0.10606061       0.10606061       0.21212121 </v>
   <v>       0.10227273       0.10227273       0.20454545 </v>
   <v>       0.09848485       0.09848485       0.19696970 </v>
   <v>       0.09469697       0.09469697       0.18939394 </v>
   <v>       0.09090909       0.09090909       0.18181818 </v>
   <v>       0.08712121       0.08712121       0.17424242 </v>
   <v>       0.08333333       0.08333333       0.16666667 </v>
   <v>       0.07954545       0.07954545       0.15909091 </v>
   <v>       0.07575758       0.07575758       0.15151515 </v>
   <v>       0.07196970       0.07196970       0.14393939 </v>
   <v>       0.06818182       0.06818182       0.13636364 </v>
   <v>       0.06439394       0.06439394       0.12878788 </v>
   <v>       0.06060606       0.06060606       0.12121212 </v>
   <v>       0.05681818       0.05681818       0.11363636 </v>
   <v>       0.05303030       0.05303030       0.10606061 </v>
   <v>       0.04924242       0.04924242       0.09848485 </v>
   <v>       0.04545455       0.04545455       0.09090909 </v>
   <v>       0.04166667       0.04166667       0.08333333 </v>
   <v>       0.03787879       0.03787879       0.07575758 </v>
   <v>       0.03409091       0.03409091       0.06818182 </v>
   <v>       0.03030303       0.03030303       0.06060606 </v>
   <v>       0.02651515       0.02651515       0.05303030 </v>
   <v>       0.02272727       0.02272727       0.04545455 </v>
   <v>       0.01893939       0.01893939       0.03787879 </v>
   <v>       0.01515152       0.01515152       0.03030303 </v>
   <v>       0.01136364       0.01136364       0.02272727 </v>
   <v>       0.00757576       0.00757576       0.01515152 </v>
   <v>       0.00378788       0.00378788       0.00757576 </v>
   <v>       0.00000000       0.00000000       0.00000000 </v>
   <v>       0.00000000       0.00000000       0.00000000 </v>
   <v>       0.00505051       0.00505051       0.00505051 </v>
   <v>       0.01010101       0.01010101       0.01010101 </v>
   <v>       0.01515152       0.01515152       0.01515152 </v>
   <v>       0.02020202       0.02020202       0.02020202 </v>
   <v>       0.02525253       0.02525253       0.02525253 </v>
   <v>       0.03030303       0.03030303       0.03030303 </v>
   <v>       0.03535354       0.03535354       0.03535354 </v>
   <v>       0.04040404       0.04040404       0.04040404 </v>
   <v>       0.04545455       0.04545455       0.04545455 </v>
   <v>       0.05050505       0.05050505       0.05050505 </v>
   <v>       0.05555556       0.05555556       0.05555556 </v>
   <v>       0.06060606       0.06060606       0.06060606 </v>
   <v>       0.06565657       0.06565657       0.06565657 </v>
   <v>       0.07070707       0.07070707       0.07070707 </v>
   <v>       0.07575758       0.07575758       0.07575758 </v>
   <v>       0.08080808       0.08080808       0.08080808 </v>
   <v>       0.08585859       0.08585859       0.08585859 </v>
   <v>       0.09090909       0.09090909       0.09090909 </v>
   <v>       0.09595960       0.09595960       0.09595960 </v>
   <v>       0.10101010       0.10101010       0.10101010 </v>
   <v>       0.10606061       0.10606061       0.10606061 </v>
   <v>       0.11111111       0.11111111       0.11111111 </v>
   <v>       0.11616162       0.11616162       0.11616162 </v>
   <v>       0.12121212       0.12121212       0.12121212 </v>
   <v>       0.12626263       0.12626263       0.12626263 </v>
   <v>       0.13131313       0.13131313       0.13131313 </v>
   <v>       0.13636364       0.13636364       0.13636364 </v>
   <v>       0.14141414       0.14141414       0.14141414 </v>
   <v>       0.14646465       0.14646465       0.14646465 </v>
   <v>       0.15151515       0.15151515       0.15151515 </v>
   <v>       0.15656566       0.15656566       0.15656566 </v>
   <v>       0.16161616       0.16161616       0.16161616 </v>
   <v>       0.16666667       0.16666667       0.16666667 </v>
   <v>       0.17171717       0.17171717       0.17171717 </v>
   <v>       0.17676768       0.17676768       0.17676768 </v>
   <v>       0.18181818       0.18181818       0.18181818 </v>
   <v>       0.18686869       0.18686869       0.18686869 </v>
   <v>       0.19191919       0.19191919       0.19191919 </v>
   <v>       0.19696970       0.19696970       0.19696970 </v>
   <v>       0.20202020       0.20202020       0.20202020 </v>
   <v>       0.20707071       0.20707071       0.20707071 </v>
   <v>       0.21212121       0.21212121       0.21212121 </v>
   <v>       0.21717172       0.21717172       0.21717172 </v>
   <v>       0.22222222       0.22222222       0.22222222 </v>
   <v>       0.22727273       0.22727273       0.22727273 </v>
   <v>       0.23232323       0.23232323       0.23232323 </v>
   <v>       0.23737374       0.23737374       0.23737374 </v>
   <v>       0.24242424       0.24242424       0.24242424 </v>
   <v>       0.24747475       0.24747475       0.24747475 </v>
   <v>       0.25252525       0.25252525       0.25252525 </v>
   <v>       0.25757576       0.25757576       0.25757576 </v>
   <v>       0.26262626       0.26262626       0.26262626 </v>
   <v>       0.26767677       0.26767677       0.26767677 </v>
   <v>       0.27272727       0.27272727       0.27272727 </v>
   <v>       0.27777778       0.27777778       0.27777778 </v>
   <v>       0.28282828       0.28282828       0.28282828 </v>
   <v>       0.28787879       0.28787879       0.28787879 </v>
   <v>       0.29292929       0.29292929       0.29292929 </v>
   <v>       0.29797980       0.29797980       0.29797980 </v>
   <v>       0.30303030       0.30303030       0.30303030 </v>
   <v>       0.30808081       0.30808081       0.30808081 </v>
   <v>       0.31313131       0.31313131       0.31313131 </v>
   <v>       0.31818182       0.31818182       0.31818182 </v>
   <v>       0.32323232       0.32323232       0.32323232 </v>
   <v>       0.32828283       0.32828283       0.32828283 </v>
   <v>       0.33333333       0.33333333       0.33333333 </v>
   <v>       0.33838384       0.33838384       0.33838384 </v>
   <v>       0.34343434       0.34343434       0.34343434 </v>
   <v>       0.34848485       0.34848485       0.34848485 </v>
   <v>       0.35353535       0.35353535       0.35353535 </v>
   <v>       0.35858586       0.35858586       0.35858586 </v>
   <v>       0.36363636       0.36363636       0.36363636 </v>
   <v>       0.36868687       0.36868687       0.36868687 </v>
   <v>       0.37373737       0.37373737       0.37373737 </v>
   <v>       0.37878788       0.37878788       0.37878788 </v>
   <v>       0.38383838       0.38383838       0.38383838 </v>
   <v>       0.38888889       0.38888889       0.38888889 </v>
   <v>       0.39393939       0.39393939       0.39393939 </v>
   <v>       0.39898990       0.39898990       0.39898990 </v>
   <v>       0.40404040       0.40404040       0.40404040 </v>
   <v>       0.40909091       0.40909091       0.40909091 </v>
   <v>       0.41414141       0.41414141       0.41414141 </v>
   <v>       0.41919192       0.41919192       0.41919192 </v>
   <v>       0.42424242       0.42424242       0.42424242 </v>
   <v>       0.42929293       0.42929293       0.42929293 </v>
   <v>       0.43434343       0.43434343       0.43434343 </v>
   <v>       0.43939394       0.43939394       0.43939394 </v>
   <v>       0.44444444       0.44444444       0.44444444 </v>
   <v>       0.44949495       0.44949495       0.44949495 </v>
   <v>       0.45454545       0.45454545       0.45454545 </v>
   <v>       0.45959596       0.45959596       0.45959596 </v>
   <v>       0.46464646       0.46464646       0.46464646 </v>
   <v>       0.46969697       0.46969697       0.46969697 </v>
   <v>       0.47474747       0.47474747       0.47474747 </v>
   <v>       0.47979798       0.47979798       0.47979798 </v>
   <v>       0.48484848       0.48484848       0.48484848 </v>
   <v>       0.48989899       0.48989899       0.48989899 </v>
   <v>       0.49494949       0.49494949       0.49494949 </v>
   <v>       0.50000000       0.50000000       0.50000000 </v>
   <v>       0.50000000       0.50000000       0.50000000 </v>
   <v>       0.50000000       0.49747475       0.50252525 </v>
   <v>       0.50000000       0.49494949       0.50505051 </v>
   <v>       0.50000000       0.49242424       0.50757576 </v>
   <v>       0.50000000       0.48989899       0.51010101 </v>
   <v>       0.50000000       0.48737374       0.51262626 </v>
   <v>       0.50000000       0.48484848       0.51515152 </v>
   <v>       0.50000000       0.48232323       0.51767677 </v>
   <v>       0.50000000       0.47979798       0.52020202 </v>
   <v>       0.50000000       0.47727273       0.52272727 </v>
   <v>       0.50000000       0.47474747       0.52525253 </v>
   <v>       0.50000000       0.47222222       0.52777778 </v>
   <v>       0.50000000       0.46969697       0.53030303 </v>
   <v>       0.50000000       0.46717172       0.53282828 </v>
   <v>       0.50000000       0.46464646       0.53535354 </v>
   <v>       0.50000000       0.46212121       0.53787879 </v>
   <v>       0.50000000       0.45959596       0.54040404 </v>
   <v>       0.50000000       0.45707071       0.54292929 </v>
   <v>       0.50000000       0.45454545       0.54545455 </v>
   <v>       0.50000000       0.45202020       0.54797980 </v>
   <v>       0.50000000       0.44949495       0.55050505 </v>
   <v>       0.50000000       0.44696970       0.55303030 </v>
   <v>       0.50000000       0.44444444       0.55555556 </v>
   <v>       0.50000000       0.44191919       0.55808081 </v>
   <v>       0.50000000       0.43939394       0.56060606 </v>
   <v>       0.50000000       0.43686869       0.56313131 </v>
   <v>       0.50000000       0.43434343       0.56565657 </v>
   <v>       0.50000000       0.43181818       0.56818182 </v>
   <v>       0.50000000       0.42929293       0.57070707 </v>
   <v>       0.50000000       0.42676768       0.57323232 </v>
   <v>       0.50000000       0.42424242       0.57575758 </v>
   <v>       0.50000000       0.42171717       0.57828283 </v>
   <v>       0.50000000       0.41919192       0.58080808 </v>
   <v>       0.50000000       0.41666667       0.58333333 </v>
   <v>       0.50000000       0.41414141       0.58585859 </v>
   <v>       0.50000000       0.41161616       0.58838384 </v>
   <v>       0.50000000       0.40909091       0.59090909 </v>
   <v>       0.50000000       0.40656566       0.59343434 </v>
   <v>       0.50000000       0.40404040       0.59595960 </v>
   <v>       0.50000000       0.40151515       0.59848485 </v>
   <v>       0.50000000       0.39898990       0.60101010 </v>
   <v>       0.50000000       0.39646465       0.60353535 </v>
   <v>       0.50000000       0.39393939       0.60606061 </v>
   <v>       0.50000000       0.39141414       0.60858586 </v>
   <v>       0.50000000       0.38888889       0.61111111 </v>
   <v>       0.50000000       0.38636364       0.61363636 </v>
   <v>       0.50000000       0.38383838       0.61616162 </v>
   <v>       0.50000000       0.38131313       0.61868687 </v>
   <v>       0.50000000       0.37878788       0.62121212 </v>
   <v>       0.50000000       0.37626263       0.62373737 </v>
   <v>       0.50000000       0.37373737       0.62626263 </v>
   <v>       0.50000000       0.37121212       0.62878788 </v>
   <v>       0.50000000       0.36868687       0.63131313 </v>
   <v>       0.50000000       0.36616162       0.63383838 </v>
   <v>       0.50000000       0.36363636       0.63636364 </v>
   <v>       0.50000000       0.36111111       0.63888889 </v>
   <v>       0.50000000       0.35858586       0.64141414 </v>
   <v>       0.50000000       0.35606061       0.64393939 </v>
   <v>       0.50000000       0.35353535       0.64646465 </v>
   <v>       0.50000000       0.35101010       0.64898990 </v>
   <v>       0.50000000       0.34848485       0.65151515 </v>
   <v>       0.50000000       0.34595960       0.65404040 </v>
   <v>       0.50000000       0.34343434       0.65656566 </v>
   <v>       0.50000000       0.34090909       0.65909091 </v>
   <v>       0.50000000       0.33838384       0.66161616 </v>
   <v>       0.50000000       0.33585859       0.66414141 </v>
   <v>       0.50000000       0.33333333       0.66666667 </v>
   <v>       0.50000000       0.33080808       0.66919192 </v>
   <v>       0.50000000       0.32828283       0.67171717 </v>
   <v>       0.50000000       0.32575758       0.67424242 </v>
   <v>       0.50000000       0.32323232       0.67676768 </v>
   <v>       0.50000000       0.32070707       0.67929293 </v>
   <v>       0.50000000       0.31818182       0.68181818 </v>
   <v>       0.50000000       0.31565657       0.68434343 </v>
   <v>       0.50000000       0.31313131       0.68686869 </v>
   <v>       0.50000000       0.31060606       0.68939394 </v>
   <v>       0.50000000       0.30808081       0.69191919 </v>
   <v>       0.50000000       0.30555556       0.69444444 </v>
   <v>       0.50000000       0.30303030       0.69696970 </v>
   <v>       0.50000000       0.30050505       0.69949495 </v>
   <v>       0.50000000       0.29797980       0.70202020 </v>
   <v>       0.50000000       0.29545455       0.70454545 </v>
   <v>       0.50000000       0.29292929       0.70707071 </v>
   <v>       0.50000000       0.29040404       0.70959596 </v>
   <v>       0.50000000       0.28787879       0.71212121 </v>
   <v>       0.50000000       0.28535354       0.71464646 </v>
   <v>       0.50000000       0.28282828       0.71717172 </v>
   <v>       0.50000000       0.28030303       0.71969697 </v>
   <v>       0.50000000       0.27777778       0.72222222 </v>
   <v>       0.50000000       0.27525253       0.72474747 </v>
   <v>       0.50000000       0.27272727       0.72727273 </v>
   <v>       0.50000000       0.27020202       0.72979798 </v>
   <v>       0.50000000       0.26767677       0.73232323 </v>
   <v>       0.50000000       0.26515152       0.73484848 </v>
   <v>       0.50000000       0.26262626       0.73737374 </v>
   <v>       0.50000000       0.26010101       0.73989899 </v>
   <v>       0.50000000       0.25757576       0.74242424 </v>
   <v>       0.50000000       0.25505051       0.74494949 </v>
   <v>       0.50000000       0.25252525       0.74747475 </v>
   <v>       0.50000000       0.25000000       0.75000000 </v>
   <v>       0.50000000       0.25000000       0.75000000 </v>
   <v>       0.50000000       0.24747475       0.74747475 </v>
   <v>       0.50000000       0.24494949       0.74494949 </v>
   <v>       0.50000000       0.24242424       0.74242424 </v>
   <v>       0.50000000       0.23989899       0.73989899 </v>
   <v>       0.50000000       0.23737374       0.73737374 </v>
   <v>       0.50000000       0.23484848       0.73484848 </v>
   <v>       0.50000000       0.23232323       0.73232323 </v>
   <v>       0.50000000       0.22979798       0.72979798 </v>
   <v>       0.50000000       0.22727273       0.72727273 </v>
   <v>       0.50000000       0.22474747       0.72474747 </v>
   <v>       0.50000000       0.22222222       0.72222222 </v>
   <v>       0.50000000       0.21969697       0.71969697 </v>
   <v>       0.50000000       0.21717172       0.71717172 </v>
   <v>       0.50000000       0.21464646       0.71464646 </v>
   <v>       0.50000000       0.21212121       0.71212121 </v>
   <v>       0.50000000       0.20959596       0.70959596 </v>
   <v>       0.50000000       0.20707071       0.70707071 </v>
   <v>       0.50000000       0.20454545       0.70454545 </v>
   <v>       0.50000000       0.20202020       0.70202020 </v>
   <v>       0.50000000       0.19949495       0.69949495 </v>
   <v>       0.50000000       0.19696970       0.69696970 </v>
   <v>       0.50000000       0.19444444       0.69444444 </v>
   <v>       0.50000000       0.19191919       0.69191919 </v>
   <v>       0.50000000       0.18939394       0.68939394 </v>
   <v>       0.50000000       0.18686869       0.68686869 </v>
   <v>       0.50000000       0.18434343       0.68434343 </v>
   <v>       0.50000000       0.18181818       0.68181818 </v>
   <v>       0.50000000       0.17929293       0.67929293 </v>
   <v>       0.50000000       0.17676768       0.67676768 </v>
   <v>       0.50000000       0.17424242       0.67424242 </v>
   <v>       0.50000000       0.17171717       0.67171717 </v>
   <v>       0.50000000       0.16919192       0.66919192 </v>
   <v>       0.50000000       0.16666667       0.66666667 </v>
   <v>       0.50000000       0.16414141       0.66414141 </v>
   <v>       0.50000000       0.16161616       0.66161616 </v>
   <v>       0.50000000       0.15909091       0.65909091 </v>
   <v>       0.50000000       0.15656566       0.65656566 </v>
   <v>       0.50000000       0.15404040       0.65404040 </v>
   <v>       0.50000000       0.15151515       0.65151515 </v>
   <v>       0.50000000       0.14898990       0.64898990 </v>
   <v>       0.50000000       0.14646465       0.64646465 </v>
   <v>       0.50000000       0.14393939       0.64393939 </v>
   <v>       0.50000000       0.14141414       0.64141414 </v>
   <v>       0.50000000       0.13888889       0.63888889 </v>
   <v>       0.50000000       0.13636364       0.63636364 </v>
   <v>       0.50000000       0.13383838       0.63383838 </v>
   <v>       0.50000000       0.13131313       0.63131313 </v>
   <v>       0.50000000       0.12878788       0.62878788 </v>
   <v>       0.50000000       0.12626263       0.62626263 </v>
   <v>       0.50000000       0.12373737       0.62373737 </v>
   <v>       0.50000000       0.12121212       0.62121212 </v>
   <v>       0.50000000       0.11868687       0.61868687 </v>
   <v>       0.50000000       0.11616162       0.61616162 </v>
   <v>       0.50000000       0.11363636       0.61363636 </v>
   <v>       0.50000000       0.11111111       0.61111111 </v>
   <v>       0.50000000       0.10858586       0.60858586 </v>
   <v>       0.50000000       0.10606061       0.60606061 </v>
   <v>       0.50000000       0.10353535       0.60353535 </v>
   <v>       0.50000000       0.10101010       0.60101010 </v>
   <v>       0.50000000       0.09848485       0.59848485 </v>
   <v>       0.50000000       0.09595960       0.59595960 </v>
   <v>       0.50000000       0.09343434       0.59343434 </v>
   <v>       0.50000000       0.09090909       0.59090909 </v>
   <v>       0.50000000       0.08838384       0.58838384 </v>
   <v>       0.50000000       0.08585859       0.58585859 </v>
   <v>       0.50000000       0.08333333       0.58333333 </v>
   <v>       0.50000000       0.08080808       0.58080808 </v>
   <v>       0.50000000       0.07828283       0.57828283 </v>
   <v>       0.50000000       0.07575758       0.57575758 </v>
   <v>       0.50000000       0.07323232       0.57323232 </v>
   <v>       0.50000000       0.07070707       0.57070707 </v>
   <v>       0.50000000       0.06818182       0.56818182 </v>
   <v>       0.50000000       0.06565657       0.56565657 </v>
   <v>       0.50000000       0.06313131       0.56313131 </v>
   <v>       0.50000000       0.06060606       0.56060606 </v>
   <v>       0.50000000       0.05808081       0.55808081 </v>
   <v>       0.50000000       0.05555556       0.55555556 </v>
   <v>       0.50000000       0.05303030       0.55303030 </v>
   <v>       0.50000000       0.05050505       0.55050505 </v>
   <v>       0.50000000       0.04797980       0.54797980 </v>
   <v>       0.50000000       0.04545455       0.54545455 </v>
   <v>       0.50000000       0.04292929       0.54292929 </v>
   <v>       0.50000000       0.04040404       0.54040404 </v>
   <v>       0.50000000       0.03787879       0.53787879 </v>
   <v>       0.50000000       0.03535354       0.53535354 </v>
   <v>       0.50000000       0.03282828       0.53282828 </v>
   <v>       0.50000000       0.03030303       0.53030303 </v>
   <v>       0.50000000       0.02777778       0.52777778 </v>
   <v>       0.50000000       0.02525253       0.52525253 </v>
   <v>       0.50000000       0.02272727       0.52272727 </v>
   <v>       0.50000000       0.02020202       0.52020202 </v>
   <v>       0.50000000       0.01767677       0.51767677 </v>
   <v>       0.50000000       0.01515152       0.51515152 </v>
   <v>       0.50000000       0.01262626       0.51262626 </v>
   <v>       0.50000000       0.01010101       0.51010101 </v>
   <v>       0.50000000       0.00757576       0.50757576 </v>
   <v>       0.50000000       0.00505051       0.50505051 </v>
   <v>       0.50000000       0.00252525       0.50252525 </v>
   <v>       0.50000000       0.00000000       0.50000000 </v>
  </varray>
  <varray name="weights" >
   <v>       0.00166667 </v>
   <v>       0.00166667 </v>
   <v>       0.00166667 </v>
   <v>       0.00166667 </v>
   <v>       0.00166667 </v>
   <v>       0.00166667 </v>
   <v>       0.00166667 </v>
   <v>       0.00166667 </v>
   <v>       0.00166667 </v>
   <v>       0.00166667 </v>
   <v>       0.00166667 </v>
   <v>       0.00166667 </v>
   <v>       0.00166667 </v>
   <v>       0.00166667 </v>
   <v>       0.00166667 </v>
   <v>       0.00166667 </v>
   <v>       0.00166667 </v>
   <v>       0.00166667 </v>
   <v>       0.00166667 </v>
   <v>       0.00166667 </v>
   <v>       0.00166667 </v>
   <v>       0.00166667 </v>
   <v>       0.00166667 </v>
   <v>       0.00166667 </v>
   <v>       0.00166667 </v>
   <v>       0.00166667 </v>
   <v>       0.00166667 </v>
   <v>       0.00166667 </v>
   <v>       0.00166667 </v>
   <v>       0.00166667 </v>
   <v>       0.00166667 </v>
   <v>       0.00166667 </v>
   <v>       0.00166667 </v>
   <v>       0.00166667 </v>
   <v>       0.00166667 </v>
   <v>       0.00166667 </v>
   <v>       0.00166667 </v>
   <v>       0.00166667 </v>
   <v>       0.00166667 </v>
   <v>       0.00166667 </v>
   <v>       0.00166667 </v>
   <v>       0.00166667 </v>
   <v>       0.00166667 </v>
   <v>       0.00166667 </v>
   <v>       0.00166667 </v>
   <v>       0.00166667 </v>
   <v>       0.00166667 </v>
   <v>       0.00166667 </v>
   <v>       0.00166667 </v>
   <v>       0.00166667 </v>
   <v>       0.00166667 </v>
   <v>       0.00166667 </v>
   <v>       0.00166667 </v>
   <v>       0.00166667 </v>
   <v>       0.00166667 </v>
   <v>       0.00166667 </v>
   <v>       0.00166667 </v>
   <v>       0.00166667 </v>
   <v>       0.00166667 </v>
   <v>       0.00166667 </v>
   <v>       0.00166667 </v>
   <v>       0.00166667 </v>
   <v>       0.00166667 </v>
   <v>       0.00166667 </v>
   <v>       0.00166667 </v>
   <v>       0.00166667 </v>
   <v>       0.00166667 </v>
   <v>       0.00166667 </v>
   <v>       0.00166667 </v>
   <v>       0.00166667 </v>
   <v>       0.00166667 </v>
   <v>       0.00166667 </v>
   <v>       0.00166667 </v>
   <v>       0.00166667 </v>
   <v>       0.00166667 </v>
   <v>       0.00166667 </v>
   <v>       0.00166667 </v>
   <v>       0.00166667 </v>
   <v>       0.00166667 </v>
   <v>       0.00166667 </v>
   <v>       0.00166667 </v>
   <v>       0.00166667 </v>
   <v>       0.00166667 </v>
   <v>       0.00166667 </v>
   <v>       0.00166667 </v>
   <v>       0.00166667 </v>
   <v>       0.00166667 </v>
   <v>       0.00166667 </v>
   <v>       0.00166667 </v>
   <v>       0.00166667 </v>
   <v>       0.00166667 </v>
   <v>       0.00166667 </v>
   <v>       0.00166667 </v>
   <v>       0.00166667 </v>
   <v>       0.00166667 </v>
   <v>       0.00166667 </v>
   <v>       0.00166667 </v>
   <v>       0.00166667 </v>
   <v>       0.00166667 </v>
   <v>       0.00166667 </v>
   <v>       0.00166667 </v>
   <v>       0.00166667 </v>
   <v>       0.00166667 </v>
   <v>       0.00166667 </v>
   <v>       0.00166667 </v>
   <v>       0.00166667 </v>
   <v>       0.00166667 </v>
   <v>       0.00166667 </v>
   <v>       0.00166667 </v>
   <v>       0.00166667 </v>
   <v>       0.00166667 </v>
   <v>       0.00166667 </v>
   <v>       0.00166667 </v>
   <v>       0.00166667 </v>
   <v>       0.00166667 </v>
   <v>       0.00166667 </v>
   <v>       0.00166667 </v>
   <v>       0.00166667 </v>
   <v>       0.00166667 </v>
   <v>       0.00166667 </v>
   <v>       0.00166667 </v>
   <v>       0.00166667 </v>
   <v>       0.00166667 </v>
   <v>       0.00166667 </v>
   <v>       0.00166667 </v>
   <v>       0.00166667 </v>
   <v>       0.00166667 </v>
   <v>       0.00166667 </v>
   <v>       0.00166667 </v>
   <v>       0.00166667 </v>
   <v>       0.00166667 </v>
   <v>       0.00166667 </v>
   <v>       0.00166667 </v>
   <v>       0.00166667 </v>
   <v>       0.00166667 </v>
   <v>       0.00166667 </v>
   <v>       0.00166667 </v>
   <v>       0.00166667 </v>
   <v>       0.00166667 </v>
   <v>       0.00166667 </v>
   <v>       0.00166667 </v>
   <v>       0.00166667 </v>
   <v>       0.00166667 </v>
   <v>       0.00166667 </v>
   <v>       0.00166667 </v>
   <v>       0.00166667 </v>
   <v>       0.00166667 </v>
   <v>       0.00166667 </v>
   <v>       0.00166667 </v>
   <v>       0.00166667 </v>
   <v>       0.00166667 </v>
   <v>       0.00166667 </v>
   <v>       0.00166667 </v>
   <v>       0.00166667 </v>
   <v>       0.00166667 </v>
   <v>       0.00166667 </v>
   <v>       0.00166667 </v>
   <v>       0.00166667 </v>
   <v>       0.00166667 </v>
   <v>       0.00166667 </v>
   <v>       0.00166667 </v>
   <v>       0.00166667 </v>
   <v>       0.00166667 </v>
   <v>       0.00166667 </v>
   <v>       0.00166667 </v>
   <v>       0.00166667 </v>
   <v>       0.00166667 </v>
   <v>       0.00166667 </v>
   <v>       0.00166667 </v>
   <v>       0.00166667 </v>
   <v>       0.00166667 </v>
   <v>       0.00166667 </v>
   <v>       0.00166667 </v>
   <v>       0.00166667 </v>
   <v>       0.00166667 </v>
   <v>       0.00166667 </v>
   <v>       0.00166667 </v>
   <v>       0.00166667 </v>
   <v>       0.00166667 </v>
   <v>       0.00166667 </v>
   <v>       0.00166667 </v>
   <v>       0.00166667 </v>
   <v>       0.00166667 </v>
   <v>       0.00166667 </v>
   <v>       0.00166667 </v>
   <v>       0.00166667 </v>
   <v>       0.00166667 </v>
   <v>       0.00166667 </v>
   <v>       0.00166667 </v>
   <v>       0.00166667 </v>
   <v>       0.00166667 </v>
   <v>       0.00166667 </v>
   <v>       0.00166667 </v>
   <v>       0.00166667 </v>
   <v>       0.00166667 </v>
   <v>       0.00166667 </v>
   <v>       0.00166667 </v>
   <v>       0.00166667 </v>
   <v>       0.00166667 </v>
   <v>       0.00166667 </v>
   <v>       0.00166667 </v>
   <v>       0.00166667 </v>
   <v>       0.00166667 </v>
   <v>       0.00166667 </v>
   <v>       0.00166667 </v>
   <v>       0.00166667 </v>
   <v>       0.00166667 </v>
   <v>       0.00166667 </v>
   <v>       0.00166667 </v>
   <v>       0.00166667 </v>
   <v>       0.00166667 </v>
   <v>       0.00166667 </v>
   <v>       0.00166667 </v>
   <v>       0.00166667 </v>
   <v>       0.00166667 </v>
   <v>       0.00166667 </v>
   <v>       0.00166667 </v>
   <v>       0.00166667 </v>
   <v>       0.00166667 </v>
   <v>       0.00166667 </v>
   <v>       0.00166667 </v>
   <v>       0.00166667 </v>
   <v>       0.00166667 </v>
   <v>       0.00166667 </v>
   <v>       0.00166667 </v>
   <v>       0.00166667 </v>
   <v>       0.00166667 </v>
   <v>       0.00166667 </v>
   <v>       0.00166667 </v>
   <v>       0.00166667 </v>
   <v>       0.00166667 </v>
   <v>       0.00166667 </v>
   <v>       0.00166667 </v>
   <v>       0.00166667 </v>
   <v>       0.00166667 </v>
   <v>       0.00166667 </v>
   <v>       0.00166667 </v>
   <v>       0.00166667 </v>
   <v>       0.00166667 </v>
   <v>       0.00166667 </v>
   <v>       0.00166667 </v>
   <v>       0.00166667 </v>
   <v>       0.00166667 </v>
   <v>       0.00166667 </v>
   <v>       0.00166667 </v>
   <v>       0.00166667 </v>
   <v>       0.00166667 </v>
   <v>       0.00166667 </v>
   <v>       0.00166667 </v>
   <v>       0.00166667 </v>
   <v>       0.00166667 </v>
   <v>       0.00166667 </v>
   <v>       0.00166667 </v>
   <v>       0.00166667 </v>
   <v>       0.00166667 </v>
   <v>       0.00166667 </v>
   <v>       0.00166667 </v>
   <v>       0.00166667 </v>
   <v>       0.00166667 </v>
   <v>       0.00166667 </v>
   <v>       0.00166667 </v>
   <v>       0.00166667 </v>
   <v>       0.00166667 </v>
   <v>       0.00166667 </v>
   <v>       0.00166667 </v>
   <v>       0.00166667 </v>
   <v>       0.00166667 </v>
   <v>       0.00166667 </v>
   <v>       0.00166667 </v>
   <v>       0.00166667 </v>
   <v>       0.00166667 </v>
   <v>       0.00166667 </v>
   <v>       0.00166667 </v>
   <v>       0.00166667 </v>
   <v>       0.00166667 </v>
   <v>       0.00166667 </v>
   <v>       0.00166667 </v>
   <v>       0.00166667 </v>
   <v>       0.00166667 </v>
   <v>       0.00166667 </v>
   <v>       0.00166667 </v>
   <v>       0.00166667 </v>
   <v>       0.00166667 </v>
   <v>       0.00166667 </v>
   <v>       0.00166667 </v>
   <v>       0.00166667 </v>
   <v>       0.00166667 </v>
   <v>       0.00166667 </v>
   <v>       0.00166667 </v>
   <v>       0.00166667 </v>
   <v>       0.00166667 </v>
   <v>       0.00166667 </v>
   <v>       0.00166667 </v>
   <v>       0.00166667 </v>
   <v>       0.00166667 </v>
   <v>       0.00166667 </v>
   <v>       0.00166667 </v>
   <v>       0.00166667 </v>
   <v>       0.00166667 </v>
   <v>       0.00166667 </v>
   <v>       0.00166667 </v>
   <v>       0.00166667 </v>
   <v>       0.00166667 </v>
   <v>       0.00166667 </v>
   <v>       0.00166667 </v>
   <v>       0.00166667 </v>
   <v>       0.00166667 </v>
   <v>       0.00166667 </v>
   <v>       0.00166667 </v>
   <v>       0.00166667 </v>
   <v>       0.00166667 </v>
   <v>       0.00166667 </v>
   <v>       0.00166667 </v>
   <v>       0.00166667 </v>
   <v>       0.00166667 </v>
   <v>       0.00166667 </v>
   <v>       0.00166667 </v>
   <v>       0.00166667 </v>
   <v>       0.00166667 </v>
   <v>       0.00166667 </v>
   <v>       0.00166667 </v>
   <v>       0.00166667 </v>
   <v>       0.00166667 </v>
   <v>       0.00166667 </v>
   <v>       0.00166667 </v>
   <v>       0.00166667 </v>
   <v>       0.00166667 </v>
   <v>       0.00166667 </v>
   <v>       0.00166667 </v>
   <v>       0.00166667 </v>
   <v>       0.00166667 </v>
   <v>       0.00166667 </v>
   <v>       0.00166667 </v>
   <v>       0.00166667 </v>
   <v>       0.00166667 </v>
   <v>       0.00166667 </v>
   <v>       0.00166667 </v>
   <v>       0.00166667 </v>
   <v>       0.00166667 </v>
   <v>       0.00166667 </v>
   <v>       0.00166667 </v>
   <v>       0.00166667 </v>
   <v>       0.00166667 </v>
   <v>       0.00166667 </v>
   <v>       0.00166667 </v>
   <v>       0.00166667 </v>
   <v>       0.00166667 </v>
   <v>       0.00166667 </v>
   <v>       0.00166667 </v>
   <v>       0.00166667 </v>
   <v>       0.00166667 </v>
   <v>       0.00166667 </v>
   <v>       0.00166667 </v>
   <v>       0.00166667 </v>
   <v>       0.00166667 </v>
   <v>       0.00166667 </v>
   <v>       0.00166667 </v>
   <v>       0.00166667 </v>
   <v>       0.00166667 </v>
   <v>       0.00166667 </v>
   <v>       0.00166667 </v>
   <v>       0.00166667 </v>
   <v>       0.00166667 </v>
   <v>       0.00166667 </v>
   <v>       0.00166667 </v>
   <v>       0.00166667 </v>
   <v>       0.00166667 </v>
   <v>       0.00166667 </v>
   <v>       0.00166667 </v>
   <v>       0.00166667 </v>
   <v>       0.00166667 </v>
   <v>       0.00166667 </v>
   <v>       0.00166667 </v>
   <v>       0.00166667 </v>
   <v>       0.00166667 </v>
   <v>       0.00166667 </v>
   <v>       0.00166667 </v>
   <v>       0.00166667 </v>
   <v>       0.00166667 </v>
   <v>       0.00166667 </v>
   <v>       0.00166667 </v>
   <v>       0.00166667 </v>
   <v>       0.00166667 </v>
   <v>       0.00166667 </v>
   <v>       0.00166667 </v>
   <v>       0.00166667 </v>
   <v>       0.00166667 </v>
   <v>       0.00166667 </v>
   <v>       0.00166667 </v>
   <v>       0.00166667 </v>
   <v>       0.00166667 </v>
   <v>       0.00166667 </v>
   <v>       0.00166667 </v>
   <v>       0.00166667 </v>
   <v>       0.00166667 </v>
   <v>       0.00166667 </v>
   <v>       0.00166667 </v>
   <v>       0.00166667 </v>
   <v>       0.00166667 </v>
   <v>       0.00166667 </v>
   <v>       0.00166667 </v>
   <v>       0.00166667 </v>
   <v>       0.00166667 </v>
   <v>       0.00166667 </v>
   <v>       0.00166667 </v>
   <v>       0.00166667 </v>
   <v>       0.00166667 </v>
   <v>       0.00166667 </v>
   <v>       0.00166667 </v>
   <v>       0.00166667 </v>
   <v>       0.00166667 </v>
   <v>       0.00166667 </v>
   <v>       0.00166667 </v>
   <v>       0.00166667 </v>
   <v>       0.00166667 </v>
   <v>       0.00166667 </v>
   <v>       0.00166667 </v>
   <v>       0.00166667 </v>
   <v>       0.00166667 </v>
   <v>       0.00166667 </v>
   <v>       0.00166667 </v>
   <v>       0.00166667 </v>
   <v>       0.00166667 </v>
   <v>       0.00166667 </v>
   <v>       0.00166667 </v>
   <v>       0.00166667 </v>
   <v>       0.00166667 </v>
   <v>       0.00166667 </v>
   <v>       0.00166667 </v>
   <v>       0.00166667 </v>
   <v>       0.00166667 </v>
   <v>       0.00166667 </v>
   <v>       0.00166667 </v>
   <v>       0.00166667 </v>
   <v>       0.00166667 </v>
   <v>       0.00166667 </v>
   <v>       0.00166667 </v>
   <v>       0.00166667 </v>
   <v>       0.00166667 </v>
   <v>       0.00166667 </v>
   <v>       0.00166667 </v>
   <v>       0.00166667 </v>
   <v>       0.00166667 </v>
   <v>       0.00166667 </v>
   <v>       0.00166667 </v>
   <v>       0.00166667 </v>
   <v>       0.00166667 </v>
   <v>       0.00166667 </v>
   <v>       0.00166667 </v>
   <v>       0.00166667 </v>
   <v>       0.00166667 </v>
   <v>       0.00166667 </v>
   <v>       0.00166667 </v>
   <v>       0.00166667 </v>
   <v>       0.00166667 </v>
   <v>       0.00166667 </v>
   <v>       0.00166667 </v>
   <v>       0.00166667 </v>
   <v>       0.00166667 </v>
   <v>       0.00166667 </v>
   <v>       0.00166667 </v>
   <v>       0.00166667 </v>
   <v>       0.00166667 </v>
   <v>       0.00166667 </v>
   <v>       0.00166667 </v>
   <v>       0.00166667 </v>
   <v>       0.00166667 </v>
   <v>       0.00166667 </v>
   <v>       0.00166667 </v>
   <v>       0.00166667 </v>
   <v>       0.00166667 </v>
   <v>       0.00166667 </v>
   <v>       0.00166667 </v>
   <v>       0.00166667 </v>
   <v>       0.00166667 </v>
   <v>       0.00166667 </v>
   <v>       0.00166667 </v>
   <v>       0.00166667 </v>
   <v>       0.00166667 </v>
   <v>       0.00166667 </v>
   <v>       0.00166667 </v>
   <v>       0.00166667 </v>
   <v>       0.00166667 </v>
   <v>       0.00166667 </v>
   <v>       0.00166667 </v>
   <v>       0.00166667 </v>
   <v>       0.00166667 </v>
   <v>       0.00166667 </v>
   <v>       0.00166667 </v>
   <v>       0.00166667 </v>
   <v>       0.00166667 </v>
   <v>       0.00166667 </v>
   <v>       0.00166667 </v>
   <v>       0.00166667 </v>
   <v>       0.00166667 </v>
   <v>       0.00166667 </v>
   <v>       0.00166667 </v>
   <v>       0.00166667 </v>
   <v>       0.00166667 </v>
   <v>       0.00166667 </v>
   <v>       0.00166667 </v>
   <v>       0.00166667 </v>
   <v>       0.00166667 </v>
   <v>       0.00166667 </v>
   <v>       0.00166667 </v>
   <v>       0.00166667 </v>
   <v>       0.00166667 </v>
   <v>       0.00166667 </v>
   <v>       0.00166667 </v>
   <v>       0.00166667 </v>
   <v>       0.00166667 </v>
   <v>       0.00166667 </v>
   <v>       0.00166667 </v>
   <v>       0.00166667 </v>
   <v>       0.00166667 </v>
   <v>       0.00166667 </v>
   <v>       0.00166667 </v>
   <v>       0.00166667 </v>
   <v>       0.00166667 </v>
   <v>       0.00166667 </v>
   <v>       0.00166667 </v>
   <v>       0.00166667 </v>
   <v>       0.00166667 </v>
   <v>       0.00166667 </v>
   <v>       0.00166667 </v>
   <v>       0.00166667 </v>
   <v>       0.00166667 </v>
   <v>       0.00166667 </v>
   <v>       0.00166667 </v>
   <v>       0.00166667 </v>
   <v>       0.00166667 </v>
   <v>       0.00166667 </v>
   <v>       0.00166667 </v>
   <v>       0.00166667 </v>
   <v>       0.00166667 </v>
   <v>       0.00166667 </v>
   <v>       0.00166667 </v>
   <v>       0.00166667 </v>
   <v>       0.00166667 </v>
   <v>       0.00166667 </v>
   <v>       0.00166667 </v>
   <v>       0.00166667 </v>
   <v>       0.00166667 </v>
   <v>       0.00166667 </v>
   <v>       0.00166667 </v>
   <v>       0.00166667 </v>
   <v>       0.00166667 </v>
   <v>       0.00166667 </v>
   <v>       0.00166667 </v>
   <v>       0.00166667 </v>
   <v>       0.00166667 </v>
   <v>       0.00166667 </v>
   <v>       0.00166667 </v>
   <v>       0.00166667 </v>
   <v>       0.00166667 </v>
   <v>       0.00166667 </v>
   <v>       0.00166667 </v>
   <v>       0.00166667 </v>
   <v>       0.00166667 </v>
   <v>       0.00166667 </v>
   <v>       0.00166667 </v>
   <v>       0.00166667 </v>
   <v>       0.00166667 </v>
   <v>       0.00166667 </v>
   <v>       0.00166667 </v>
   <v>       0.00166667 </v>
   <v>       0.00166667 </v>
   <v>       0.00166667 </v>
   <v>       0.00166667 </v>
   <v>       0.00166667 </v>
   <v>       0.00166667 </v>
   <v>       0.00166667 </v>
   <v>       0.00166667 </v>
   <v>       0.00166667 </v>
   <v>       0.00166667 </v>
   <v>       0.00166667 </v>
   <v>       0.00166667 </v>
   <v>       0.00166667 </v>
   <v>       0.00166667 </v>
   <v>       0.00166667 </v>
   <v>       0.00166667 </v>
   <v>       0.00166667 </v>
   <v>       0.00166667 </v>
   <v>       0.00166667 </v>
   <v>       0.00166667 </v>
   <v>       0.00166667 </v>
   <v>       0.00166667 </v>
   <v>       0.00166667 </v>
   <v>       0.00166667 </v>
   <v>       0.00166667 </v>
   <v>       0.00166667 </v>
   <v>       0.00166667 </v>
   <v>       0.00166667 </v>
   <v>       0.00166667 </v>
   <v>       0.00166667 </v>
   <v>       0.00166667 </v>
   <v>       0.00166667 </v>
   <v>       0.00166667 </v>
   <v>       0.00166667 </v>
   <v>       0.00166667 </v>
  </varray>
 </kpoints>
 <parameters>
  <separator name="general" >
   <i type="string" name="SYSTEM">FCC Silicon</i>
   <i type="logical" name="LCOMPAT"> F  </i>
  </separator>
  <separator name="electronic" >
   <i type="string" name="PREC">normal</i>
   <i name="ENMAX">    500.00000000</i>
   <i name="ENAUG">    644.87300000</i>
   <i name="EDIFF">      0.00000100</i>
   <i type="int" name="IALGO">    38</i>
   <i type="int" name="IWAVPR">    10</i>
   <i type="int" name="NBANDS">    16</i>
   <i name="NELECT">      8.00000000</i>
   <i type="int" name="TURBO">     0</i>
   <i type="int" name="IRESTART">     0</i>
   <i type="int" name="NREBOOT">     0</i>
   <i type="int" name="NMIN">     0</i>
   <i name="EREF">      0.00000000</i>
   <separator name="electronic smearing" >
    <i type="int" name="ISMEAR">     0</i>
    <i name="SIGMA">      0.10000000</i>
    <i name="KSPACING">      0.50000000</i>
    <i type="logical" name="KGAMMA"> T  </i>
   </separator>
   <separator name="electronic projectors" >
    <i type="logical" name="LREAL"> F  </i>
    <v name="ROPT">      0.00000000</v>
    <i type="int" name="LMAXPAW">  -100</i>
    <i type="int" name="LMAXMIX">     2</i>
    <i type="logical" name="NLSPLINE"> F  </i>
   </separator>
   <separator name="electronic startup" >
    <i type="int" name="ISTART">     0</i>
    <i type="int" name="ICHARG">     2</i>
    <i type="int" name="INIWAV">     1</i>
   </separator>
   <separator name="electronic spin" >
    <i type="int" name="ISPIN">     1</i>
    <i type="logical" name="LNONCOLLINEAR"> F  </i>
    <v name="MAGMOM">      1.00000000      1.00000000</v>
    <i name="NUPDOWN">     -1.00000000</i>
    <i type="logical" name="LSORBIT"> F  </i>
    <v name="SAXIS">      0.00000000      0.00000000      1.00000000</v>
    <i type="logical" name="LSPIRAL"> F  </i>
    <v name="QSPIRAL">      0.00000000      0.00000000      0.00000000</v>
    <i type="logical" name="LZEROZ"> F  </i>
   </separator>
   <separator name="electronic exchange-correlation" >
    <i type="logical" name="LASPH"> F  </i>
    <i type="logical" name="LMETAGGA"> F  </i>
   </separator>
   <separator name="electronic convergence" >
    <i type="int" name="NELM">   100</i>
    <i type="int" name="NELMDL">    -5</i>
    <i type="int" name="NELMIN">     4</i>
    <i name="ENINI">    500.00000000</i>
    <separator name="electronic convergence detail" >
     <i type="logical" name="LDIAG"> T  </i>
     <i type="logical" name="LSUBROT"> F  </i>
     <i name="WEIMIN">      0.00000000</i>
     <i name="EBREAK">      0.00000002</i>
     <i name="DEPER">      0.30000000</i>
     <i type="int" name="NRMM">     4</i>
     <i name="TIME">      0.40000000</i>
    </separator>
   </separator>
   <separator name="electronic mixer" >
    <i name="AMIX">      0.40000000</i>
    <i name="BMIX">      1.00000000</i>
    <i name="AMIN">      0.10000000</i>
    <i name="AMIX_MAG">      1.60000000</i>
    <i name="BMIX_MAG">      1.00000000</i>
    <separator name="electronic mixer details" >
     <i type="int" name="IMIX">     4</i>
     <i type="logical" name="MIXFIRST"> F  </i>
     <i type="int" name="MAXMIX">   -45</i>
     <i name="WC">    100.00000000</i>
     <i type="int" name="INIMIX">     1</i>
     <i type="int" name="MIXPRE">     1</i>
     <i type="int" name="MREMOVE">     5</i>
    </separator>
   </separator>
   <separator name="electronic dipolcorrection" >
    <i type="logical" name="LDIPOL"> F  </i>
    <i type="logical" name="LMONO"> F  </i>
    <i type="int" name="IDIPOL">     0</i>
    <i name="EPSILON">      1.00000000</i>
    <v name="DIPOL">   -100.00000000   -100.00000000   -100.00000000</v>
    <i name="EFIELD">      0.00000000</i>
   </separator>
  </separator>
  <separator name="grids" >
   <i type="int" name="NGX">    14</i>
   <i type="int" name="NGY">    14</i>
   <i type="int" name="NGZ">    14</i>
   <i type="int" name="NGXF">    28</i>
   <i type="int" name="NGYF">    28</i>
   <i type="int" name="NGZF">    28</i>
   <i type="logical" name="ADDGRID"> F  </i>
  </separator>
  <separator name="ionic" >
   <i type="int" name="NSW">     0</i>
   <i type="int" name="IBRION">    -1</i>
   <i type="int" name="ISIF">     2</i>
   <i name="PSTRESS">      0.00000000</i>
   <i name="EDIFFG">      0.00001000</i>
   <i type="int" name="NFREE">     0</i>
   <i name="POTIM">      0.50000000</i>
   <i name="SMASS">     -3.00000000</i>
   <i name="SCALEE">      1.00000000</i>
  </separator>
  <separator name="ionic md" >
   <i name="TEBEG">      0.00010000</i>
   <i name="TEEND">      0.00010000</i>
   <i type="int" name="NBLOCK">     1</i>
   <i type="int" name="KBLOCK">     1</i>
   <i type="int" name="NPACO">   256</i>
   <i name="APACO">     16.00000000</i>
  </separator>
  <separator name="symmetry" >
   <i type="int" name="ISYM">     2</i>
   <i name="SYMPREC">      0.00001000</i>
  </separator>
  <separator name="dos" >
   <i type="logical" name="LORBIT"> F  </i>
   <v name="RWIGS">     -1.00000000</v>
   <i type="int" name="NEDOS">   301</i>
   <i name="EMIN">     10.00000000</i>
   <i name="EMAX">    -10.00000000</i>
   <i name="EFERMI">      0.00000000</i>
  </separator>
  <separator name="writing" >
   <i type="int" name="NWRITE">     2</i>
   <i type="logical" name="LWAVE"> T  </i>
   <i type="logical" name="LCHARG"> T  </i>
   <i type="logical" name="LPARD"> F  </i>
   <i type="logical" name="LVTOT"> F  </i>
   <i type="logical" name="LVHAR"> F  </i>
   <i type="logical" name="LELF"> F  </i>
   <i type="logical" name="LOPTICS"> F  </i>
   <v name="STM">      0.00000000      0.00000000      0.00000000      0.00000000      0.00000000      0.00000000      0.00000000</v>
  </separator>
  <separator name="performance" >
   <i type="int" name="NPAR">    16</i>
   <i type="int" name="NSIM">     4</i>
   <i type="int" name="NBLK">    -1</i>
   <i type="logical" name="LPLANE"> T  </i>
   <i type="logical" name="LSCALAPACK"> T  </i>
   <i type="logical" name="LSCAAWARE"> F  </i>
   <i type="logical" name="LSCALU"> F  </i>
   <i type="logical" name="LASYNC"> F  </i>
   <i type="logical" name="LORBITALREAL"> F  </i>
  </separator>
  <separator name="miscellaneous" >
   <i type="int" name="IDIOT">     3</i>
   <i type="logical" name="LMUSIC"> F  </i>
   <v name="POMASS">     12.01100000</v>
   <v name="DARWINR">      0.00000000</v>
   <v name="DARWINV">      1.00000000</v>
   <i type="logical" name="LCORR"> T  </i>
  </separator>
  <i type="logical" name="GGA_COMPAT"> T  </i>
  <i type="logical" name="LBERRY"> F  </i>
  <i type="int" name="ICORELEVEL">     0</i>
  <i type="logical" name="LDAU"> F  </i>
  <i type="int" name="I_CONSTRAINED_M">     0</i>
  <separator name="electronic exchange-correlation" >
   <i type="string" name="GGA">--</i>
   <i type="int" name="VOSKOWN">     0</i>
   <i type="logical" name="LHFCALC"> F  </i>
   <i type="string" name="PRECFOCK"></i>
   <i type="logical" name="LSYMGRAD"> F  </i>
   <i type="logical" name="LHFONE"> F  </i>
   <i type="logical" name="LRHFCALC"> F  </i>
   <i type="logical" name="LTHOMAS"> F  </i>
   <i type="logical" name="LMODELHF"> F  </i>
   <i name="ENCUT4O">     -1.00000000</i>
   <i type="int" name="EXXOEP">     0</i>
   <i type="int" name="FOURORBIT">     0</i>
   <i name="AEXX">      0.00000000</i>
   <i name="HFALPHA">      0.00000000</i>
   <i name="MCALPHA">      0.00000000</i>
   <i name="ALDAX">      1.00000000</i>
   <i name="AGGAX">      1.00000000</i>
   <i name="ALDAC">      1.00000000</i>
   <i name="AGGAC">      1.00000000</i>
   <i type="int" name="NKREDX">     1</i>
   <i type="int" name="NKREDY">     1</i>
   <i type="int" name="NKREDZ">     1</i>
   <i type="logical" name="SHIFTRED"> F  </i>
   <i type="logical" name="ODDONLY"> F  </i>
   <i type="logical" name="EVENONLY"> F  </i>
   <i type="int" name="LMAXFOCK">     0</i>
   <i type="int" name="NMAXFOCKAE">     0</i>
   <i type="logical" name="LFOCKAEDFT"> F  </i>
   <i name="HFSCREEN">      0.00000000</i>
   <i name="HFSCREENC">      0.00000000</i>
   <i type="int" name="NBANDSGWLOW">     0</i>
  </separator>
  <separator name="vdW DFT" >
   <i type="logical" name="LUSE_VDW"> F  </i>
   <i name="Zab_VDW">     -0.84910000</i>
   <i name="PARAM1">      0.12340000</i>
   <i name="PARAM2">      1.00000000</i>
   <i name="PARAM3">      0.00000000</i>
  </separator>
  <separator name="model GW" >
   <i type="int" name="MODEL_GW">     0</i>
   <i name="MODEL_EPS0">      3.63296545</i>
   <i name="MODEL_ALPHA">      1.00000000</i>
  </separator>
  <separator name="linear response parameters" >
   <i type="logical" name="LEPSILON"> F  </i>
   <i type="logical" name="LRPA"> F  </i>
   <i type="logical" name="LNABLA"> F  </i>
   <i type="logical" name="LVEL"> F  </i>
   <i type="int" name="KINTER">     0</i>
   <i name="CSHIFT">      0.10000000</i>
   <i name="OMEGAMAX">     -1.00000000</i>
   <i name="DEG_THRESHOLD">      0.00200000</i>
  </separator>
  <separator name="orbital magnetization" >
   <i type="logical" name="NUCIND"> F  </i>
   <v name="MAGPOS">      0.00000000      0.00000000      0.00000000</v>
   <i type="logical" name="LNICSALL"> T  </i>
   <i type="logical" name="ORBITALMAG"> F  </i>
   <i type="logical" name="LMAGBLOCH"> F  </i>
   <i type="logical" name="LCHIMAG"> F  </i>
   <i type="logical" name="LGAUGE"> T  </i>
   <i type="int" name="MAGATOM">     0</i>
   <v name="MAGDIPOL">      0.00000000      0.00000000      0.00000000</v>
   <v name="AVECCONST">      0.00000000      0.00000000      0.00000000</v>
  </separator>
  <separator name="response functions" >
   <i type="logical" name="LADDER"> F  </i>
   <i type="logical" name="LFXC"> F  </i>
   <i type="logical" name="LHARTREE"> T  </i>
   <i type="int" name="IBSE">     0</i>
   <v type="int" name="KPOINT">    -1     0     0     0</v>
   <i type="logical" name="LTCTE"> F  </i>
   <i type="logical" name="LTETE"> F  </i>
   <i type="logical" name="LTRIPLET"> F  </i>
   <i type="logical" name="LFXCEPS"> F  </i>
   <i type="logical" name="LFXHEG"> F  </i>
   <i type="int" name="NATURALO">     0</i>
   <i type="logical" name="L2ORDER"> F  </i>
   <i type="logical" name="LUSEW"> F  </i>
   <i name="ENCUTGW">     -2.00000000</i>
   <i name="ENCUTGWSOFT">     -2.00000000</i>
   <i name="ENCUTLF">     -1.00000000</i>
   <i type="int" name="LMAXMP2">    -1</i>
   <i name="SCISSOR">      0.00000000</i>
   <i type="int" name="NOMEGA">     0</i>
   <i type="int" name="NOMEGAR">     0</i>
   <i type="int" name="NBANDSGW">    -1</i>
   <i type="int" name="NBANDSO">    -1</i>
   <i type="int" name="NBANDSV">    -1</i>
   <i type="int" name="NELM">   100</i>
   <i type="int" name="NELMHF">     1</i>
   <i type="int" name="DIM">     3</i>
   <i type="int" name="ANTIRES">     0</i>
   <i name="OMEGAMAX">    -30.00000000</i>
   <i name="OMEGAMIN">    -30.00000000</i>
   <i name="OMEGATL">   -200.00000000</i>
   <i type="int" name="OMEGAGRID">     0</i>
   <i name="CSHIFT">     -0.10000000</i>
   <i type="logical" name="SELFENERGY"> F  </i>
   <i type="logical" name="LSPECTRAL"> F  </i>
   <i type="logical" name="LSPECTRALGW"> F  </i>
   <i type="logical" name="LSINGLES"> F  </i>
   <i type="logical" name="LFERMIGW"> F  </i>
   <i type="logical" name="ODDONLYGW"> F  </i>
   <i type="logical" name="EVENONLYGW"> F  </i>
   <i type="int" name="NKREDLFX">     1</i>
   <i type="int" name="NKREDLFY">     1</i>
   <i type="int" name="NKREDLFZ">     1</i>
   <i type="int" name="MAXMEM">  1800</i>
   <i type="int" name="TELESCOPE">     0</i>
   <i type="int" name="TAUPAR">     1</i>
   <i type="int" name="OMEGAPAR">    -1</i>
   <i name="LAMBDA">      1.00000000</i>
  </separator>
  <separator name="External order field" >
   <i name="OFIELD_KAPPA">      0.00000000</i>
   <v name="OFIELD_K">      0.00000000      0.00000000      0.00000000</v>
   <i name="OFIELD_Q6_NEAR">      0.00000000</i>
   <i name="OFIELD_Q6_FAR">      0.00000000</i>
   <i name="OFIELD_A">      0.00000000</i>
  </separator>
 </parameters>
 <atominfo>
  <atoms>       2 </atoms>
  <types>       1 </types>
  <array name="atoms" >
   <dimension dim="1">ion</dimension>
   <field type="string">element</field>
   <field type="int">atomtype</field>
   <set>
    <rc><c>C </c><c>   1</c></rc>
    <rc><c>C </c><c>   1</c></rc>
   </set>
  </array>
  <array name="atomtypes" >
   <dimension dim="1">type</dimension>
   <field type="int">atomspertype</field>
   <field type="string">element</field>
   <field>mass</field>
   <field>valence</field>
   <field type="string">pseudopotential</field>
   <set>
    <rc><c>   2</c><c>C </c><c>     12.01100000</c><c>      4.00000000</c><c> PAW_PBE C 08Apr2002                    </c></rc>
   </set>
  </array>
 </atominfo>
 <structure name="initialpos" >
  <crystal>
   <varray name="basis" >
    <v>       1.82265025       1.82265025       0.00000000 </v>
    <v>       0.00000000       1.82265025       1.82265025 </v>
    <v>       1.82265025       0.00000000       1.82265025 </v>
   </varray>
   <i name="volume">     12.10988483 </i>
   <varray name="rec_basis" >
    <v>       0.27432581       0.27432581      -0.27432581 </v>
    <v>      -0.27432581       0.27432581       0.27432581 </v>
    <v>       0.27432581      -0.27432581       0.27432581 </v>
   </varray>
  </crystal>
  <varray name="positions" >
   <v>       0.00000000       0.00000000       0.00000000 </v>
   <v>       0.25000000       0.25000000       0.25000000 </v>
  </varray>
 </structure>
 <calculation>
  <scstep>
   <time name="dav">    1.67    1.67</time>
   <time name="total">    1.67    1.74</time>
   <energy>
    <i name="alphaZ">     26.91360492 </i>
    <i name="ewald">   -340.46574252 </i>
    <i name="hartreedc">    -19.07812432 </i>
    <i name="XCdc">     28.18955709 </i>
    <i name="pawpsdc">     75.66288619 </i>
    <i name="pawaedc">    -77.96384553 </i>
    <i name="eentropy">     -0.00044198 </i>
    <i name="bandstr">      2.10999532 </i>
    <i name="atom">    294.29684335 </i>
    <i name="e_fr_energy">    -10.33526749 </i>
    <i name="e_wo_entrp">    -10.33482551 </i>
    <i name="e_0_energy">    -10.33504650 </i>
   </energy>
  </scstep>
  <scstep>
   <time name="dav">    2.44    2.44</time>
   <time name="total">    2.44    2.47</time>
   <energy>
    <i name="e_fr_energy">    -16.36153551 </i>
    <i name="e_wo_entrp">    -16.36153551 </i>
    <i name="e_0_energy">    -16.36153551 </i>
   </energy>
  </scstep>
  <scstep>
   <time name="dav">    1.78    1.78</time>
   <time name="total">    1.78    1.79</time>
   <energy>
    <i name="e_fr_energy">    -16.37440269 </i>
    <i name="e_wo_entrp">    -16.37440269 </i>
    <i name="e_0_energy">    -16.37440269 </i>
   </energy>
  </scstep>
  <scstep>
   <time name="dav">    3.75    3.75</time>
   <time name="total">    3.75    3.76</time>
   <energy>
    <i name="e_fr_energy">    -16.37440766 </i>
    <i name="e_wo_entrp">    -16.37440766 </i>
    <i name="e_0_energy">    -16.37440766 </i>
   </energy>
  </scstep>
  <scstep>
   <time name="dav">    1.78    1.79</time>
   <time name="total">    1.81    1.82</time>
   <energy>
    <i name="e_fr_energy">    -16.37440766 </i>
    <i name="e_wo_entrp">    -16.37440766 </i>
    <i name="e_0_energy">    -16.37440766 </i>
   </energy>
  </scstep>
  <scstep>
   <time name="dav">    1.85    1.86</time>
   <time name="total">    1.88    1.89</time>
   <energy>
    <i name="e_fr_energy">    -15.86384060 </i>
    <i name="e_wo_entrp">    -15.86384060 </i>
    <i name="e_0_energy">    -15.86384060 </i>
   </energy>
  </scstep>
  <scstep>
   <time name="dav">    2.01    2.02</time>
   <time name="total">    2.05    2.05</time>
   <energy>
    <i name="e_fr_energy">    -15.69042625 </i>
    <i name="e_wo_entrp">    -15.69042625 </i>
    <i name="e_0_energy">    -15.69042625 </i>
   </energy>
  </scstep>
  <scstep>
   <time name="dav">    1.91    1.91</time>
   <time name="total">    1.94    1.95</time>
   <energy>
    <i name="e_fr_energy">    -15.69221293 </i>
    <i name="e_wo_entrp">    -15.69221293 </i>
    <i name="e_0_energy">    -15.69221293 </i>
   </energy>
  </scstep>
  <scstep>
   <time name="dav">    2.79    2.80</time>
   <time name="total">    2.82    2.83</time>
   <energy>
    <i name="e_fr_energy">    -15.69227147 </i>
    <i name="e_wo_entrp">    -15.69227147 </i>
    <i name="e_0_energy">    -15.69227147 </i>
   </energy>
  </scstep>
  <scstep>
   <time name="dav">    2.26    2.26</time>
   <time name="total">    2.29    2.29</time>
   <energy>
    <i name="e_fr_energy">    -15.69228817 </i>
    <i name="e_wo_entrp">    -15.69228817 </i>
    <i name="e_0_energy">    -15.69228817 </i>
   </energy>
  </scstep>
  <scstep>
   <time name="dav">    2.55    2.55</time>
   <time name="total">    2.55    2.56</time>
   <energy>
    <i name="alphaZ">     26.91360492 </i>
    <i name="ewald">   -340.46574252 </i>
    <i name="hartreedc">    -28.58713888 </i>
    <i name="XCdc">     29.08291116 </i>
    <i name="pawpsdc">    125.55611522 </i>
    <i name="pawaedc">   -128.12678264 </i>
    <i name="eentropy">     -0.00000000 </i>
    <i name="bandstr">      5.63790123 </i>
    <i name="atom">    294.29684335 </i>
    <i name="e_fr_energy">    -15.69228816 </i>
    <i name="e_wo_entrp">    -15.69228816 </i>
    <i name="e_0_energy">    -15.69228816 </i>
   </energy>
  </scstep>
  <structure>
   <crystal>
    <varray name="basis" >
     <v>       1.82265025       1.82265025       0.00000000 </v>
     <v>       0.00000000       1.82265025       1.82265025 </v>
     <v>       1.82265025       0.00000000       1.82265025 </v>
    </varray>
    <i name="volume">     12.10988483 </i>
    <varray name="rec_basis" >
     <v>       0.27432581       0.27432581      -0.27432581 </v>
     <v>      -0.27432581       0.27432581       0.27432581 </v>
     <v>       0.27432581      -0.27432581       0.27432581 </v>
    </varray>
   </crystal>
   <varray name="positions" >
    <v>       0.00000000       0.00000000       0.00000000 </v>
    <v>       0.25000000       0.25000000       0.25000000 </v>
   </varray>
  </structure>
  <varray name="forces" >
   <v>       0.00000000       0.00000000       0.00000000 </v>
   <v>      -0.00000000      -0.00000000      -0.00000000 </v>
  </varray>
  <varray name="stress" >
   <v>       2.09671789       0.00000000       0.00000000 </v>
   <v>       0.00000000       2.09671789       0.00000000 </v>
   <v>       0.00000000       0.00000000       2.09671789 </v>
  </varray>
  <energy>
   <i name="e_fr_energy">    -15.69228816 </i>
   <i name="e_wo_entrp">    -15.69228816 </i>
   <i name="e_0_energy">     -0.00000000 </i>
  </energy>
  <time name="totalsc">   25.94   26.17</time>
  <eigenvalues>
   <array>
    <dimension dim="1">band</dimension>
    <dimension dim="2">kpoint</dimension>
    <dimension dim="3">spin</dimension>
    <field>eigene</field>
    <field>occ</field>
    <set>
     <set comment="spin 1">
      <set comment="kpoint 1">
       <r>  -11.6695    1.0000 </r>
       <r>    9.0253    1.0000 </r>
       <r>    9.0255    1.0000 </r>
       <r>    9.0255    1.0000 </r>
       <r>   14.3926    0.0000 </r>
       <r>   14.3928    0.0000 </r>
       <r>   14.3928    0.0000 </r>
       <r>   20.8943    0.0000 </r>
       <r>   27.3877    0.0000 </r>
       <r>   34.7225    0.0000 </r>
       <r>   34.7225    0.0000 </r>
       <r>   35.6598    0.0000 </r>
       <r>   35.6599    0.0000 </r>
       <r>   35.6599    0.0000 </r>
       <r>   42.5054    0.0000 </r>
       <r>   54.0391    0.0000 </r>
      </set>
      <set comment="kpoint 2">
       <r>  -11.6686    1.0000 </r>
       <r>    9.0216    1.0000 </r>
       <r>    9.0217    1.0000 </r>
       <r>    9.0230    1.0000 </r>
       <r>   14.3919    0.0000 </r>
       <r>   14.3972    0.0000 </r>
       <r>   14.3974    0.0000 </r>
       <r>   20.8954    0.0000 </r>
       <r>   27.3894    0.0000 </r>
       <r>   34.6458    0.0000 </r>
       <r>   34.7236    0.0000 </r>
       <r>   35.6620    0.0000 </r>
       <r>   35.6620    0.0000 </r>
       <r>   35.7339    0.0000 </r>
       <r>   42.5135    0.0000 </r>
       <r>   54.0370    0.0000 </r>
      </set>
      <set comment="kpoint 3">
       <r>  -11.6659    1.0000 </r>
       <r>    9.0102    1.0000 </r>
       <r>    9.0103    1.0000 </r>
       <r>    9.0162    1.0000 </r>
       <r>   14.3896    0.0000 </r>
       <r>   14.4109    0.0000 </r>
       <r>   14.4110    0.0000 </r>
       <r>   20.8984    0.0000 </r>
       <r>   27.3944    0.0000 </r>
       <r>   34.4620    0.0000 </r>
       <r>   34.7270    0.0000 </r>
       <r>   35.6683    0.0000 </r>
       <r>   35.6684    0.0000 </r>
       <r>   35.9114    0.0000 </r>
       <r>   42.5379    0.0000 </r>
       <r>   54.0325    0.0000 </r>
      </set>
      <set comment="kpoint 4">
       <r>  -11.6614    1.0000 </r>
       <r>    8.9913    1.0000 </r>
       <r>    8.9914    1.0000 </r>
       <r>    9.0042    1.0000 </r>
       <r>   14.3858    0.0000 </r>
       <r>   14.4336    0.0000 </r>
       <r>   14.4337    0.0000 </r>
       <r>   20.9035    0.0000 </r>
       <r>   27.4028    0.0000 </r>
       <r>   34.2298    0.0000 </r>
       <r>   34.7327    0.0000 </r>
       <r>   35.6789    0.0000 </r>
       <r>   35.6789    0.0000 </r>
       <r>   36.1301    0.0000 </r>
       <r>   42.5786    0.0000 </r>
       <r>   54.0128    0.0000 </r>
      </set>
      <set comment="kpoint 5">
       <r>  -11.6551    1.0000 </r>
       <r>    8.9651    1.0000 </r>
       <r>    8.9652    1.0000 </r>
       <r>    8.9876    1.0000 </r>
       <r>   14.3804    0.0000 </r>
       <r>   14.4651    0.0000 </r>
       <r>   14.4652    0.0000 </r>
       <r>   20.9105    0.0000 </r>
       <r>   27.4145    0.0000 </r>
       <r>   33.9766    0.0000 </r>
       <r>   34.7407    0.0000 </r>
       <r>   35.6936    0.0000 </r>
       <r>   35.6937    0.0000 </r>
       <r>   36.3643    0.0000 </r>
       <r>   42.6360    0.0000 </r>
       <r>   53.9914    0.0000 </r>
      </set>
      <set comment="kpoint 6">
       <r>  -11.6469    1.0000 </r>
       <r>    8.9323    1.0000 </r>
       <r>    8.9323    1.0000 </r>
       <r>    8.9663    1.0000 </r>
       <r>   14.3734    0.0000 </r>
       <r>   14.5051    0.0000 </r>
       <r>   14.5052    0.0000 </r>
       <r>   20.9194    0.0000 </r>
       <r>   27.4295    0.0000 </r>
       <r>   33.7134    0.0000 </r>
       <r>   34.7512    0.0000 </r>
       <r>   35.7141    0.0000 </r>
       <r>   35.7141    0.0000 </r>
       <r>   36.6026    0.0000 </r>
       <r>   42.7102    0.0000 </r>
       <r>   53.9644    0.0000 </r>
      </set>
      <set comment="kpoint 7">
       <r>  -11.6370    1.0000 </r>
       <r>    8.8924    1.0000 </r>
       <r>    8.8925    1.0000 </r>
       <r>    8.9403    1.0000 </r>
       <r>   14.3650    0.0000 </r>
       <r>   14.5533    0.0000 </r>
       <r>   14.5534    0.0000 </r>
       <r>   20.9299    0.0000 </r>
       <r>   27.4478    0.0000 </r>
       <r>   33.4453    0.0000 </r>
       <r>   34.7637    0.0000 </r>
       <r>   35.7373    0.0000 </r>
[...]
       <r>   40.1679    0.0000 </r>
       <r>   45.9797    0.0000 </r>
       <r>   45.9797    0.0000 </r>
       <r>   55.3041    0.0000 </r>
       <r>   55.3042    0.0000 </r>
      </set>
      <set comment="kpoint 595">
       <r>   -3.3360    1.0000 </r>
       <r>   -3.3360    1.0000 </r>
       <r>    3.0609    1.0000 </r>
       <r>    3.0610    1.0000 </r>
       <r>   13.5698    0.0000 </r>
       <r>   13.5698    0.0000 </r>
       <r>   24.8800    0.0000 </r>
       <r>   24.8804    0.0000 </r>
       <r>   31.0553    0.0000 </r>
       <r>   31.0553    0.0000 </r>
       <r>   40.1797    0.0000 </r>
       <r>   40.1798    0.0000 </r>
       <r>   45.9580    0.0000 </r>
       <r>   45.9580    0.0000 </r>
       <r>   55.3749    0.0000 </r>
       <r>   55.3750    0.0000 </r>
      </set>
      <set comment="kpoint 596">
       <r>   -3.3373    1.0000 </r>
       <r>   -3.3373    1.0000 </r>
       <r>    3.0655    1.0000 </r>
       <r>    3.0655    1.0000 </r>
       <r>   13.5613    0.0000 </r>
       <r>   13.5613    0.0000 </r>
       <r>   24.8839    0.0000 </r>
       <r>   24.8843    0.0000 </r>
       <r>   31.0602    0.0000 </r>
       <r>   31.0602    0.0000 </r>
       <r>   40.1895    0.0000 </r>
       <r>   40.1896    0.0000 </r>
       <r>   45.9401    0.0000 </r>
       <r>   45.9401    0.0000 </r>
       <r>   55.4414    0.0000 </r>
       <r>   55.4415    0.0000 </r>
      </set>
      <set comment="kpoint 597">
       <r>   -3.3382    1.0000 </r>
       <r>   -3.3382    1.0000 </r>
       <r>    3.0690    1.0000 </r>
       <r>    3.0691    1.0000 </r>
       <r>   13.5547    0.0000 </r>
       <r>   13.5547    0.0000 </r>
       <r>   24.8870    0.0000 </r>
       <r>   24.8873    0.0000 </r>
       <r>   31.0639    0.0000 </r>
       <r>   31.0639    0.0000 </r>
       <r>   40.1972    0.0000 </r>
       <r>   40.1973    0.0000 </r>
       <r>   45.9261    0.0000 </r>
       <r>   45.9261    0.0000 </r>
       <r>   55.5017    0.0000 </r>
       <r>   55.5018    0.0000 </r>
      </set>
      <set comment="kpoint 598">
       <r>   -3.3389    1.0000 </r>
       <r>   -3.3389    1.0000 </r>
       <r>    3.0716    1.0000 </r>
       <r>    3.0716    1.0000 </r>
       <r>   13.5500    0.0000 </r>
       <r>   13.5500    0.0000 </r>
       <r>   24.8891    0.0000 </r>
       <r>   24.8895    0.0000 </r>
       <r>   31.0666    0.0000 </r>
       <r>   31.0666    0.0000 </r>
       <r>   40.2027    0.0000 </r>
       <r>   40.2028    0.0000 </r>
       <r>   45.9161    0.0000 </r>
       <r>   45.9161    0.0000 </r>
       <r>   55.5523    0.0000 </r>
       <r>   55.5525    0.0000 </r>
      </set>
      <set comment="kpoint 599">
       <r>   -3.3393    1.0000 </r>
       <r>   -3.3393    1.0000 </r>
       <r>    3.0731    1.0000 </r>
       <r>    3.0731    1.0000 </r>
       <r>   13.5472    0.0000 </r>
       <r>   13.5472    0.0000 </r>
       <r>   24.8904    0.0000 </r>
       <r>   24.8908    0.0000 </r>
       <r>   31.0682    0.0000 </r>
       <r>   31.0683    0.0000 </r>
       <r>   40.2061    0.0000 </r>
       <r>   40.2062    0.0000 </r>
       <r>   45.9101    0.0000 </r>
       <r>   45.9101    0.0000 </r>
       <r>   55.5876    0.0000 </r>
       <r>   55.5877    0.0000 </r>
      </set>
      <set comment="kpoint 600">
       <r>   -3.3395    1.0000 </r>
       <r>   -3.3395    1.0000 </r>
       <r>    3.0736    1.0000 </r>
       <r>    3.0736    1.0000 </r>
       <r>   13.5463    0.0000 </r>
       <r>   13.5463    0.0000 </r>
       <r>   24.8909    0.0000 </r>
       <r>   24.8912    0.0000 </r>
       <r>   31.0688    0.0000 </r>
       <r>   31.0688    0.0000 </r>
       <r>   40.2072    0.0000 </r>
       <r>   40.2073    0.0000 </r>
       <r>   45.9081    0.0000 </r>
       <r>   45.9081    0.0000 </r>
       <r>   55.6006    0.0000 </r>
       <r>   55.6007    0.0000 </r>
      </set>
     </set>
    </set>
   </array>
  </eigenvalues>
  <separator name="orbital magnetization" >
   <v name="MAGDIPOLOUT">      0.00000000      0.00000000      0.00000000</v>
  </separator>
  <dos>
   <i name="efermi">      9.50304459 </i>
   <total>
    <array>
     <dimension dim="1">gridpoints</dimension>
     <dimension dim="2">spin</dimension>
     <field>energy</field>
     <field>total</field>
     <field>integrated</field>
     <set>
      <set comment="spin 1">
       <r>   -15.2566     0.0000     0.0000 </r>
       <r>   -14.9935     0.0000     0.0000 </r>
       <r>   -14.7305     0.0000     0.0000 </r>
       <r>   -14.4674     0.0000     0.0000 </r>
       <r>   -14.2044     0.0000     0.0000 </r>
       <r>   -13.9413     0.0000     0.0000 </r>
       <r>   -13.6783     0.0000     0.0000 </r>
       <r>   -13.4152     0.0000     0.0000 </r>
       <r>   -13.1522     0.0000     0.0000 </r>
       <r>   -12.8891     0.0000     0.0000 </r>
       <r>   -12.6261     0.0000     0.0000 </r>
       <r>   -12.3630     0.0000     0.0000 </r>
       <r>   -12.1000     0.0000     0.0000 </r>
       <r>   -11.8369     0.0018     0.0005 </r>
       <r>   -11.5739     0.3885     0.1027 </r>
       <r>   -11.3108     0.4076     0.2099 </r>
       <r>   -11.0478     0.2509     0.2759 </r>
       <r>   -10.7847     0.2007     0.3287 </r>
       <r>   -10.5216     0.1727     0.3741 </r>
       <r>   -10.2586     0.1541     0.4146 </r>
       <r>    -9.9955     0.1407     0.4516 </r>
       <r>    -9.7325     0.1304     0.4860 </r>
       <r>    -9.4694     0.1223     0.5181 </r>
       <r>    -9.2064     0.1157     0.5486 </r>
       <r>    -8.9433     0.1101     0.5775 </r>
       <r>    -8.6803     0.1055     0.6053 </r>
       <r>    -8.4172     0.1016     0.6320 </r>
       <r>    -8.1542     0.0983     0.6579 </r>
       <r>    -7.8911     0.0956     0.6830 </r>
       <r>    -7.6281     0.0933     0.7076 </r>
       <r>    -7.3650     0.0917     0.7317 </r>
       <r>    -7.1020     0.0908     0.7556 </r>
       <r>    -6.8389     0.0912     0.7796 </r>
       <r>    -6.5759     0.0942     0.8044 </r>
       <r>    -6.3128     0.1264     0.8376 </r>
       <r>    -6.0498     0.3548     0.9309 </r>
       <r>    -5.7867     0.2076     0.9855 </r>
       <r>    -5.5237     0.1617     1.0281 </r>
       <r>    -5.2606     0.1423     1.0655 </r>
       <r>    -4.9976     0.1311     1.1000 </r>
       <r>    -4.7345     0.1239     1.1326 </r>
       <r>    -4.4715     0.1194     1.1640 </r>
       <r>    -4.2084     0.1173     1.1948 </r>
       <r>    -3.9454     0.1179     1.2259 </r>
       <r>    -3.6823     0.2759     1.2984 </r>
       <r>    -3.4193     0.7024     1.4832 </r>
       <r>    -3.1562     2.6682     2.1851 </r>
       <r>    -2.8932     1.1969     2.4999 </r>
       <r>    -2.6301     1.2031     2.8164 </r>
       <r>    -2.3671     0.5614     2.9640 </r>
       <r>    -2.1040     0.3263     3.0499 </r>
       <r>    -1.8410     0.2988     3.1285 </r>
       <r>    -1.5779     0.0905     3.1523 </r>
       <r>    -1.3149     0.0842     3.1745 </r>
       <r>    -1.0518     0.0815     3.1959 </r>
       <r>    -0.7888     0.0788     3.2166 </r>
       <r>    -0.5257     0.0768     3.2368 </r>
       <r>    -0.2627     0.0751     3.2566 </r>
       <r>     0.0004     0.0808     3.2778 </r>
       <r>     0.2634     0.2603     3.3463 </r>
       <r>     0.5265     0.2744     3.4185 </r>
       <r>     0.7895     0.3045     3.4986 </r>
       <r>     1.0526     0.4133     3.6073 </r>
       <r>     1.3156     0.7371     3.8012 </r>
       <r>     1.5787     0.6434     3.9705 </r>
       <r>     1.8417     0.5347     4.1111 </r>
       <r>     2.1048     0.5044     4.2438 </r>
       <r>     2.3678     0.5026     4.3760 </r>
       <r>     2.6309     0.5280     4.5149 </r>
       <r>     2.8939     0.6269     4.6798 </r>
       <r>     3.1570     1.4362     5.0576 </r>
       <r>     3.4200     0.9131     5.2978 </r>
       <r>     3.6831     0.6008     5.4558 </r>
       <r>     3.9461     0.5118     5.5905 </r>
       <r>     4.2092     0.3741     5.6889 </r>
       <r>     4.4722     0.3342     5.7768 </r>
       <r>     4.7353     0.3244     5.8621 </r>
       <r>     4.9983     0.3198     5.9462 </r>
       <r>     5.2614     0.3192     6.0302 </r>
       <r>     5.5244     0.3235     6.1153 </r>
       <r>     5.7875     0.3351     6.2034 </r>
       <r>     6.0505     0.3619     6.2986 </r>
       <r>     6.3136     0.5117     6.4332 </r>
       <r>     6.5766     0.8937     6.6683 </r>
       <r>     6.8397     0.5103     6.8025 </r>
       <r>     7.1027     0.4348     6.9169 </r>
       <r>     7.3658     0.4073     7.0240 </r>
       <r>     7.6288     0.3974     7.1286 </r>
       <r>     7.8919     0.3999     7.2338 </r>
       <r>     8.1549     0.4154     7.3431 </r>
       <r>     8.4180     0.4507     7.4616 </r>
       <r>     8.6810     0.5295     7.6009 </r>
       <r>     8.9441     0.8295     7.8191 </r>
       <r>     9.2071     0.6857     7.9995 </r>
       <r>     9.4702     0.0020     8.0000 </r>
       <r>     9.7332     0.0000     8.0000 </r>
       <r>     9.9963     0.0000     8.0000 </r>
       <r>    10.2593     0.0000     8.0000 </r>
       <r>    10.5224     0.0000     8.0000 </r>
       <r>    10.7854     0.0000     8.0000 </r>
       <r>    11.0485     0.0000     8.0000 </r>
       <r>    11.3115     0.0000     8.0000 </r>
       <r>    11.5746     0.0000     8.0000 </r>
       <r>    11.8376     0.0000     8.0000 </r>
       <r>    12.1007     0.0000     8.0000 </r>
       <r>    12.3637     0.0000     8.0000 </r>
       <r>    12.6268     0.0000     8.0000 </r>
       <r>    12.8898     0.0545     8.0143 </r>
       <r>    13.1529     0.3900     8.1169 </r>
       <r>    13.4159     0.2402     8.1801 </r>
       <r>    13.6790     1.0998     8.4694 </r>
       <r>    13.9420     0.8975     8.7055 </r>
       <r>    14.2051     0.6724     8.8824 </r>
       <r>    14.4681     1.1815     9.1932 </r>
       <r>    14.7312     1.0156     9.4603 </r>
       <r>    14.9942     0.7122     9.6477 </r>
       <r>    15.2573     0.6313     9.8137 </r>
       <r>    15.5203     0.5934     9.9698 </r>
       <r>    15.7834     0.5768    10.1215 </r>
       <r>    16.0464     0.5783    10.2737 </r>
       <r>    16.3095     0.6004    10.4316 </r>
       <r>    16.5725     0.6596    10.6051 </r>
       <r>    16.8356     0.8611    10.8316 </r>
       <r>    17.0986     2.0185    11.3626 </r>
       <r>    17.3617     1.4680    11.7487 </r>
       <r>    17.6247     0.5407    11.8909 </r>
       <r>    17.8878     0.4770    12.0164 </r>
       <r>    18.1508     0.4451    12.1335 </r>
       <r>    18.4139     0.4264    12.2457 </r>
       <r>    18.6769     0.4166    12.3553 </r>
       <r>    18.9400     0.4175    12.4651 </r>
       <r>    19.2030     0.4630    12.5869 </r>
       <r>    19.4661     0.4672    12.7098 </r>
       <r>    19.7291     0.1845    12.7583 </r>
       <r>    19.9922     0.1661    12.8020 </r>
       <r>    20.2552     0.1686    12.8464 </r>
       <r>    20.5183     0.3156    12.9294 </r>
       <r>    20.7813     0.5050    13.0622 </r>
       <r>    21.0444     0.9230    13.3050 </r>
       <r>    21.3074     0.7426    13.5004 </r>
       <r>    21.5705     0.5519    13.6456 </r>
       <r>    21.8335     0.8387    13.8662 </r>
       <r>    22.0966     0.6056    14.0255 </r>
       <r>    22.3596     0.4530    14.1446 </r>
       <r>    22.6227     0.3958    14.2488 </r>
       <r>    22.8857     0.4247    14.3605 </r>
       <r>    23.1488     0.4423    14.4768 </r>
       <r>    23.4118     0.4729    14.6012 </r>
       <r>    23.6749     0.5467    14.7450 </r>
       <r>    23.9379     0.7980    14.9549 </r>
       <r>    24.2010     1.0106    15.2208 </r>
       <r>    24.4640     0.6531    15.3926 </r>
       <r>    24.7271     0.9107    15.6321 </r>
       <r>    24.9901     1.3505    15.9874 </r>
       <r>    25.2532     0.0998    16.0136 </r>
       <r>    25.5162     0.0728    16.0328 </r>
       <r>    25.7793     0.0490    16.0457 </r>
       <r>    26.0423     0.0433    16.0571 </r>
       <r>    26.3054     0.0651    16.0742 </r>
       <r>    26.5684     0.2093    16.1293 </r>
       <r>    26.8315     0.1466    16.1678 </r>
       <r>    27.0945     0.1641    16.2110 </r>
       <r>    27.3576     0.2237    16.2698 </r>
       <r>    27.6206     0.5726    16.4205 </r>
       <r>    27.8837     0.5474    16.5645 </r>
       <r>    28.1467     0.4588    16.6852 </r>
       <r>    28.4098     0.4391    16.8007 </r>
       <r>    28.6728     0.6456    16.9705 </r>
       <r>    28.9359     0.7012    17.1549 </r>
       <r>    29.1989     0.6932    17.3373 </r>
       <r>    29.4620     0.9840    17.5961 </r>
       <r>    29.7250     0.8622    17.8229 </r>
       <r>    29.9881     0.8016    18.0338 </r>
       <r>    30.2511     0.5755    18.1851 </r>
       <r>    30.5142     0.5457    18.3287 </r>
       <r>    30.7772     0.8087    18.5414 </r>
       <r>    31.0403     1.3509    18.8968 </r>
       <r>    31.3033     1.3757    19.2586 </r>
       <r>    31.5664     1.0050    19.5230 </r>
       <r>    31.8294     0.6729    19.7000 </r>
       <r>    32.0925     1.0939    19.9878 </r>
       <r>    32.3555     0.5564    20.1341 </r>
       <r>    32.6186     0.4360    20.2488 </r>
       <r>    32.8816     0.5184    20.3852 </r>
       <r>    33.1447     0.3025    20.4647 </r>
       <r>    33.4077     0.3867    20.5665 </r>
       <r>    33.6708     0.3828    20.6671 </r>
       <r>    33.9338     0.7453    20.8632 </r>
       <r>    34.1969     0.6540    21.0352 </r>
       <r>    34.4599     0.3674    21.1319 </r>
       <r>    34.7230     0.4275    21.2443 </r>
       <r>    34.9860     0.4013    21.3499 </r>
       <r>    35.2491     0.2688    21.4206 </r>
       <r>    35.5121     0.2597    21.4889 </r>
       <r>    35.7752     0.6739    21.6662 </r>
       <r>    36.0382     0.5299    21.8056 </r>
       <r>    36.3013     0.4103    21.9135 </r>
       <r>    36.5643     0.3720    22.0113 </r>
       <r>    36.8274     0.3503    22.1035 </r>
       <r>    37.0904     0.3358    22.1918 </r>
       <r>    37.3535     0.3264    22.2777 </r>
       <r>    37.6165     0.3154    22.3607 </r>
       <r>    37.8796     0.3089    22.4419 </r>
       <r>    38.1426     0.3129    22.5242 </r>
       <r>    38.4057     0.8709    22.7533 </r>
       <r>    38.6687     0.7568    22.9524 </r>
       <r>    38.9318     0.5888    23.1073 </r>
       <r>    39.1948     0.5474    23.2513 </r>
       <r>    39.4579     0.5779    23.4033 </r>
       <r>    39.7209     0.5365    23.5444 </r>
       <r>    39.9840     0.4735    23.6690 </r>
       <r>    40.2470     0.8399    23.8899 </r>
       <r>    40.5101     0.6163    24.0520 </r>
       <r>    40.7731     0.4092    24.1597 </r>
       <r>    41.0362     0.5564    24.3060 </r>
       <r>    41.2992     0.5287    24.4451 </r>
       <r>    41.5623     0.4205    24.5557 </r>
       <r>    41.8253     0.5819    24.7088 </r>
       <r>    42.0884     0.8870    24.9421 </r>
       <r>    42.3514     0.5211    25.0792 </r>
       <r>    42.6145     0.4268    25.1915 </r>
       <r>    42.8775     0.3494    25.2834 </r>
       <r>    43.1406     0.2879    25.3591 </r>
       <r>    43.4036     0.2677    25.4295 </r>
       <r>    43.6667     0.2490    25.4950 </r>
       <r>    43.9297     0.2348    25.5568 </r>
       <r>    44.1928     0.2302    25.6173 </r>
       <r>    44.4558     0.2254    25.6766 </r>
       <r>    44.7189     0.2166    25.7336 </r>
       <r>    44.9819     0.2091    25.7886 </r>
       <r>    45.2450     0.2099    25.8438 </r>
       <r>    45.5080     0.2095    25.8989 </r>
       <r>    45.7711     0.2100    25.9541 </r>
       <r>    46.0341     0.9559    26.2056 </r>
       <r>    46.2972     0.8279    26.4234 </r>
       <r>    46.5602     0.6121    26.5844 </r>
       <r>    46.8233     0.5347    26.7250 </r>
       <r>    47.0863     0.5533    26.8706 </r>
       <r>    47.3494     0.5556    27.0167 </r>
       <r>    47.6124     0.5725    27.1673 </r>
       <r>    47.8755     0.5249    27.3054 </r>
       <r>    48.1385     0.5286    27.4444 </r>
       <r>    48.4016     0.4228    27.5556 </r>
       <r>    48.6646     0.3885    27.6578 </r>
       <r>    48.9277     0.4219    27.7688 </r>
       <r>    49.1907     0.5967    27.9257 </r>
       <r>    49.4538     0.5716    28.0761 </r>
       <r>    49.7168     0.7012    28.2606 </r>
       <r>    49.9799     0.6382    28.4284 </r>
       <r>    50.2429     0.6190    28.5913 </r>
       <r>    50.5060     0.7540    28.7896 </r>
       <r>    50.7690     1.0977    29.0784 </r>
       <r>    51.0321     0.4712    29.2023 </r>
       <r>    51.2951     0.3983    29.3071 </r>
       <r>    51.5582     0.3951    29.4110 </r>
       <r>    51.8212     0.6411    29.5796 </r>
       <r>    52.0843     0.7962    29.7891 </r>
       <r>    52.3473     0.7251    29.9798 </r>
       <r>    52.6104     0.8952    30.2153 </r>
       <r>    52.8734     1.1174    30.5093 </r>
       <r>    53.1365     0.9509    30.7594 </r>
       <r>    53.3995     0.4808    30.8859 </r>
       <r>    53.6626     0.4583    31.0064 </r>
       <r>    53.9256     0.5261    31.1448 </r>
       <r>    54.1887     0.5206    31.2818 </r>
       <r>    54.4517     0.2754    31.3542 </r>
       <r>    54.7148     0.2731    31.4261 </r>
       <r>    54.9778     0.2776    31.4991 </r>
       <r>    55.2409     0.2615    31.5679 </r>
       <r>    55.5039     0.3023    31.6474 </r>
       <r>    55.7670     0.3617    31.7425 </r>
       <r>    56.0300     0.0492    31.7555 </r>
       <r>    56.2931     0.0471    31.7679 </r>
       <r>    56.5561     0.0485    31.7806 </r>
       <r>    56.8192     0.0494    31.7936 </r>
       <r>    57.0822     0.0499    31.8067 </r>
       <r>    57.3453     0.0498    31.8198 </r>
       <r>    57.6083     0.0494    31.8328 </r>
       <r>    57.8714     0.0491    31.8458 </r>
       <r>    58.1344     0.0487    31.8586 </r>
       <r>    58.3975     0.0495    31.8716 </r>
       <r>    58.6605     0.0506    31.8849 </r>
       <r>    58.9236     0.0532    31.8989 </r>
       <r>    59.1866     0.0548    31.9133 </r>
       <r>    59.4497     0.0592    31.9289 </r>
       <r>    59.7127     0.0677    31.9467 </r>
       <r>    59.9758     0.1002    31.9730 </r>
       <r>    60.2388     0.1019    31.9999 </r>
       <r>    60.5019     0.0005    32.0000 </r>
       <r>    60.7649     0.0000    32.0000 </r>
       <r>    61.0280     0.0000    32.0000 </r>
       <r>    61.2910     0.0000    32.0000 </r>
       <r>    61.5541     0.0000    32.0000 </r>
       <r>    61.8171     0.0000    32.0000 </r>
       <r>    62.0802     0.0000    32.0000 </r>
       <r>    62.3432     0.0000    32.0000 </r>
       <r>    62.6063     0.0000    32.0000 </r>
       <r>    62.8693     0.0000    32.0000 </r>
       <r>    63.1324     0.0000    32.0000 </r>
       <r>    63.3954     0.0000    32.0000 </r>
       <r>    63.6585     0.0000    32.0000 </r>
      </set>
     </set>
    </array>
   </total>
  </dos>
 </calculation>
 <structure name="finalpos" >
  <crystal>
   <varray name="basis" >
    <v>       1.82265025       1.82265025       0.00000000 </v>
    <v>       0.00000000       1.82265025       1.82265025 </v>
    <v>       1.82265025       0.00000000       1.82265025 </v>
   </varray>
   <i name="volume">     12.10988483 </i>
   <varray name="rec_basis" >
    <v>       0.27432581       0.27432581      -0.27432581 </v>
    <v>      -0.27432581       0.27432581       0.27432581 </v>
    <v>       0.27432581      -0.27432581       0.27432581 </v>
   </varray>
  </crystal>
  <varray name="positions" >
   <v>       0.00000000       0.00000000       0.00000000 </v>
   <v>       0.25000000       0.25000000       0.25000000 </v>
  </varray>
 </structure>
</modeling>
