Diamond                                 
   3.56700000000000     
     0.510976    0.510976    0.000000
     0.000000    0.510976    0.510976
     0.510976   -0.000000    0.510976
   C 
     2
Direct
  0.000000  0.000000  0.000000
  0.250000  0.250000  0.250000
 
   28   28   28
 0.16137196133E+02 0.17015994520E+02 0.18975489406E+02 0.20550436880E+02 0.20624288260E+02
 0.19092302725E+02 0.16624177481E+02 0.13989542254E+02 0.11617801312E+02 0.96786884230E+01
 0.82226374076E+01 0.71841936697E+01 0.64811661488E+01 0.60659954808E+01 0.59273015722E+01
 0.60659620141E+01 0.64811846468E+01 0.71842814720E+01 0.82227076667E+01 0.96786963068E+01
 0.11617817804E+02 0.13989624001E+02 0.16624249071E+02 0.19092250342E+02 0.20624124806E+02
 0.20550293437E+02 0.18975453183E+02 0.17016020600E+02 0.17015994520E+02 0.18605698233E+02
 0.20600202460E+02 0.21585979819E+02 0.20916189226E+02 0.18919348693E+02 0.16372642204E+02
 0.13893547855E+02 0.11755918635E+02 0.10086290273E+02 0.88632681632E+01 0.80025402712E+01
 0.74402068543E+01 0.71568072390E+01 0.71567307222E+01 0.74400861305E+01 0.80025292948E+01
 0.88633400175E+01 0.10086324881E+02 0.11755918504E+02 0.13893590960E+02 0.16372672396E+02
 0.18919218543E+02 0.20915946051E+02 0.21585927831E+02 0.20600555009E+02 0.18606247189E+02
 0.17016260991E+02 0.18975489406E+02 0.20600202460E+02 0.21880727997E+02 0.21870771195E+02
 0.20476739569E+02 0.18262842099E+02 0.15884726251E+02 0.13721428743E+02 0.11955992773E+02
 0.10626937534E+02 0.96631729338E+01 0.89897573669E+01 0.85780141418E+01 0.84373792997E+01
 0.85778685457E+01 0.89896426813E+01 0.96631812520E+01 0.10626982211E+02 0.11955997140E+02
 0.13721435714E+02 0.15884754606E+02 0.18262793613E+02 0.20476568620E+02 0.21870644240E+02
 0.21880869865E+02 0.20600598194E+02 0.18975838269E+02 0.18243778118E+02 0.20550436880E+02
 0.21585979819E+02 0.21870771195E+02 0.21027777488E+02 0.19313778300E+02 0.17260996246E+02
 0.15278852033E+02 0.13588920316E+02 0.12283037220E+02 0.11313396037E+02 0.10600004307E+02
 0.10104741712E+02 0.98426304986E+01 0.98425555028E+01 0.10104606840E+02 0.10599949618E+02
 0.11313432675E+02 0.12283085245E+02 0.13588947362E+02 0.15278876351E+02 0.17261009978E+02
 0.19313761029E+02 0.21027745282E+02 0.21870740321E+02 0.21585927651E+02 0.20550360881E+02
 0.19653632870E+02 0.19653672527E+02 0.20624288260E+02 0.20916189226E+02 0.20476739569E+02
 0.19313778300E+02 0.17754339568E+02 0.16144985697E+02 0.14714875685E+02 0.13588904193E+02
 0.12742433065E+02 0.12092594454E+02 0.11588885875E+02 0.11248859379E+02 0.11126332056E+02
 0.11248718274E+02 0.11588734211E+02 0.12092539323E+02 0.12742471904E+02 0.13588978987E+02
 0.14714933261E+02 0.16144993345E+02 0.17754316318E+02 0.19313793776E+02 0.20476809150E+02
 0.20916210688E+02 0.20624180305E+02 0.20032827003E+02 0.19742007306E+02 0.20032966313E+02
 0.19092302725E+02 0.18919348693E+02 0.18262842099E+02 0.17260996246E+02 0.16144985697E+02
 0.15117845350E+02 0.14313200250E+02 0.13721418263E+02 0.13254830426E+02 0.12844328727E+02
 0.12503397599E+02 0.12301885717E+02 0.12301785501E+02 0.12503171032E+02 0.12844122827E+02
 0.13254742021E+02 0.13721456114E+02 0.14313306303E+02 0.15117917532E+02 0.16144944074E+02
 0.17260882652E+02 0.18262809240E+02 0.18919499855E+02 0.19092575837E+02 0.18893425047E+02
 0.18648974821E+02 0.18648883770E+02 0.18893185770E+02 0.16624177481E+02 0.16372642204E+02
 0.15884726251E+02 0.15278852033E+02 0.14714875685E+02 0.14313200250E+02 0.14070548376E+02
 0.13893580371E+02 0.13690347152E+02 0.13453036215E+02 0.13247656039E+02 0.13165030054E+02
 0.13247522023E+02 0.13452827416E+02 0.13690152259E+02 0.13893483841E+02 0.14070593196E+02
 0.14313342012E+02 0.14714980986E+02 0.15278801053E+02 0.15884553937E+02 0.16372547793E+02
 0.16624340600E+02 0.16622032508E+02 0.16491525469E+02 0.16418427457E+02 0.16491210929E+02
 0.16621658754E+02 0.13989542254E+02 0.13893547855E+02 0.13721428743E+02 0.13588920316E+02
 0.13588904193E+02 0.13721418263E+02 0.13893580371E+02 0.13989577995E+02 0.13965440819E+02
 0.13857795370E+02 0.13762520457E+02 0.13762545304E+02 0.13857808314E+02 0.13965350969E+02
 0.13989408784E+02 0.13893461435E+02 0.13721448515E+02 0.13589058769E+02 0.13589077945E+02
 0.13721468256E+02 0.13893444142E+02 0.13989392484E+02 0.13965372786E+02 0.13857828367E+02
 0.13762523302E+02 0.13762492855E+02 0.13857800441E+02 0.13965442826E+02 0.11617801312E+02
 0.11755918635E+02 0.11955992773E+02 0.12283037220E+02 0.12742433065E+02 0.13254830426E+02
 0.13690347152E+02 0.13965440819E+02 0.14067901893E+02 0.14062245526E+02 0.14045088479E+02
 0.14062455364E+02 0.14068063863E+02 0.13965376006E+02 0.13690144492E+02 0.13254678579E+02
 0.12742411607E+02 0.12283127907E+02 0.11956162378E+02 0.11756095247E+02 0.11617852420E+02
 0.11473455999E+02 0.11307361973E+02 0.11166073181E+02 0.11110005337E+02 0.11166301396E+02
 0.11307656040E+02 0.11473616179E+02 0.96786884230E+01 0.10086290273E+02 0.10626937534E+02
 0.11313396037E+02 0.12092594454E+02 0.12844328727E+02 0.13453036215E+02 0.13857795370E+02
 0.14062245526E+02 0.14131837267E+02 0.14132003830E+02 0.14062549923E+02 0.13857914826E+02
 0.13452913940E+02 0.12844149039E+02 0.12092477478E+02 0.11313316029E+02 0.10626899010E+02
 0.10086378048E+02 0.96789000004E+01 0.93607689034E+01 0.90992195428E+01 0.88961303192E+01
 0.87808660952E+01 0.87809461664E+01 0.88962685659E+01 0.90992279923E+01 0.93605950769E+01
 0.82226374076E+01 0.88632681632E+01 0.96631729338E+01 0.10600004307E+02 0.11588885875E+02
 0.12503397599E+02 0.13247656039E+02 0.13762520457E+02 0.14045088479E+02 0.14132003830E+02
 0.14045326964E+02 0.13762739306E+02 0.13247677843E+02 0.12503305671E+02 0.11588830168E+02
 0.10599982348E+02 0.96630952335E+01 0.88631400305E+01 0.82225679640E+01 0.77226048151E+01
 0.73351307376E+01 0.70464239629E+01 0.68627074735E+01 0.67989355445E+01 0.68625806404E+01
 0.70462256804E+01 0.73349527392E+01 0.77225375090E+01 0.71841936697E+01 0.80025402712E+01
 0.89897573669E+01 0.10104741712E+02 0.11248859379E+02 0.12301885717E+02 0.13165030054E+02
 0.13762545304E+02 0.14062455364E+02 0.14062549923E+02 0.13762739306E+02 0.13165158555E+02
 0.12301885176E+02 0.11248805626E+02 0.10104736992E+02 0.89898155168E+01 0.80025751250E+01
 0.71841096890E+01 0.65316479994E+01 0.60245097443E+01 0.56451725017E+01 0.53880694903E+01
 0.52569398781E+01 0.52568368236E+01 0.53878833119E+01 0.56451193753E+01 0.60246460377E+01
 0.65318344153E+01 0.64811661488E+01 0.74402068543E+01 0.85780141418E+01 0.98426304986E+01
 0.11126332056E+02 0.12301785501E+02 0.13247522023E+02 0.13857808314E+02 0.14068063863E+02
 0.13857914826E+02 0.13247677843E+02 0.12301885176E+02 0.11126289521E+02 0.98424820568E+01
 0.85779221909E+01 0.74402948262E+01 0.64813521100E+01 0.57062021642E+01 0.50973810464E+01
 0.46354521428E+01 0.43085735248E+01 0.41125768050E+01 0.40471350480E+01 0.41125674962E+01
 0.43086686183E+01 0.46356576417E+01 0.50975205817E+01 0.57061337592E+01 0.60659954808E+01
 0.71568072390E+01 0.84373792997E+01 0.98425555028E+01 0.11248718274E+02 0.12503171032E+02
 0.13452827416E+02 0.13965350969E+02 0.13965376006E+02 0.13452913940E+02 0.12503305671E+02
 0.11248805626E+02 0.98424820568E+01 0.84371614833E+01 0.71566252740E+01 0.60660218367E+01
 0.51783622524E+01 0.44774685623E+01 0.39402875555E+01 0.35490171886E+01 0.32930798219E+01
 0.31665987623E+01 0.31666479907E+01 0.32932023067E+01 0.35491233565E+01 0.39402555081E+01
 0.44772736130E+01 0.51781541122E+01 0.59273015722E+01 0.71567307222E+01 0.85778685457E+01
 0.10104606840E+02 0.11588734211E+02 0.12844122827E+02 0.13690152259E+02 0.13989408784E+02
 0.13690144492E+02 0.12844149039E+02 0.11588830168E+02 0.10104736992E+02 0.85779221909E+01
 0.71566252740E+01 0.59270967402E+01 0.49171106396E+01 0.41165232198E+01 0.35003758299E+01
 0.30444838685E+01 0.27310816705E+01 0.25481752240E+01 0.24881544054E+01 0.25482141937E+01
 0.27310602258E+01 0.30443414049E+01 0.35001967002E+01 0.41164687877E+01 0.49172428374E+01
 0.60659620141E+01 0.74400861305E+01 0.89896426813E+01 0.10599949618E+02 0.12092539323E+02
 0.13254742021E+02 0.13893483841E+02 0.13893461435E+02 0.13254678579E+02 0.12092477478E+02
 0.10599982348E+02 0.89898155168E+01 0.74402948262E+01 0.60660218367E+01 0.49171106396E+01
 0.39970450549E+01 0.32851019998E+01 0.27538338586E+01 0.23784777637E+01 0.21397839801E+01
 0.20241311019E+01 0.20241162391E+01 0.21397214016E+01 0.23783744605E+01 0.27537876745E+01
 0.32852164471E+01 0.39972745110E+01 0.49172646285E+01 0.64811846468E+01 0.80025292948E+01
 0.96631812520E+01 0.11313432675E+02 0.12742471904E+02 0.13721456114E+02 0.14070593196E+02
 0.13721448515E+02 0.12742411607E+02 0.11313316029E+02 0.96630952335E+01 0.80025751250E+01
 0.64813521100E+01 0.51783622524E+01 0.41165232198E+01 0.32851019998E+01 0.26584708332E+01
 0.22078218753E+01 0.19070838355E+01 0.17356335601E+01 0.16800361780E+01 0.17355986392E+01
 0.19070675460E+01 0.22078873932E+01 0.26586163075E+01 0.32852280630E+01 0.41165125014E+01
 0.51782088354E+01 0.71842814720E+01 0.88633400175E+01 0.10626982211E+02 0.12283085245E+02
 0.13588978987E+02 0.14313306303E+02 0.14313342012E+02 0.13589058769E+02 0.12283127907E+02
 0.10626899010E+02 0.88631400305E+01 0.71841096890E+01 0.57062021642E+01 0.44774685623E+01
 0.35003758299E+01 0.27538338586E+01 0.22078218753E+01 0.18314414935E+01 0.15975304050E+01
 0.14859315850E+01 0.14859259689E+01 0.15975463220E+01 0.18315131280E+01 0.22078914786E+01
 0.27537877983E+01 0.35001939711E+01 0.44772901952E+01 0.57061936793E+01 0.82227076667E+01
 0.10086324881E+02 0.11955997140E+02 0.13588947362E+02 0.14714933261E+02 0.15117917532E+02
 0.14714980986E+02 0.13589077945E+02 0.11956162378E+02 0.10086378048E+02 0.82225679640E+01
 0.65316479994E+01 0.50973810464E+01 0.39402875555E+01 0.30444838685E+01 0.23784777637E+01
 0.19070838355E+01 0.15975304050E+01 0.14233181545E+01 0.13672335735E+01 0.14233274728E+01
 0.15975530757E+01 0.19070799944E+01 0.23783860459E+01 0.30443275473E+01 0.39402049272E+01
 0.50974844206E+01 0.65318686207E+01 0.96786963068E+01 0.11755918504E+02 0.13721435714E+02
 0.15278876351E+02 0.16144993345E+02 0.16144944074E+02 0.15278801053E+02 0.13721468256E+02
 0.11756095247E+02 0.96789000004E+01 0.77226048151E+01 0.60245097443E+01 0.46354521428E+01
 0.35490171886E+01 0.27310816705E+01 0.21397839801E+01 0.17356335601E+01 0.14859315850E+01
 0.13672335735E+01 0.13672378023E+01 0.14859299278E+01 0.17356031876E+01 0.21397368185E+01
 0.27310795676E+01 0.35491157444E+01 0.46356152114E+01 0.60246071847E+01 0.77225316517E+01
 0.11617817804E+02 0.13893590960E+02 0.15884754606E+02 0.17261009978E+02 0.17754316318E+02
 0.17260882652E+02 0.15884553937E+02 0.13893444142E+02 0.11617852420E+02 0.93607689034E+01
 0.73351307376E+01 0.56451725017E+01 0.43085735248E+01 0.32930798219E+01 0.25481752240E+01
 0.20241311019E+01 0.16800361780E+01 0.14859259689E+01 0.14233274728E+01 0.14859299278E+01
 0.16800167430E+01 0.20241063572E+01 0.25482201978E+01 0.32932215473E+01 0.43087070814E+01
 0.56451481464E+01 0.73349351013E+01 0.93605663983E+01 0.13989624001E+02 0.16372672396E+02
 0.18262793613E+02 0.19313761029E+02 0.19313793776E+02 0.18262809240E+02 0.16372547793E+02
 0.13989392484E+02 0.11473455999E+02 0.90992195428E+01 0.70464239629E+01 0.53880694903E+01
 0.41125768050E+01 0.31665987623E+01 0.24881544054E+01 0.20241162391E+01 0.17355986392E+01
 0.15975463220E+01 0.15975530757E+01 0.17356031876E+01 0.20241063572E+01 0.24881541970E+01
 0.31666193585E+01 0.41125627104E+01 0.53879620733E+01 0.70462795754E+01 0.90991909565E+01
 0.11473615639E+02 0.16624249071E+02 0.18919218543E+02 0.20476568620E+02 0.21027745282E+02
 0.20476809150E+02 0.18919499855E+02 0.16624340600E+02 0.13965372786E+02 0.11307361973E+02
 0.88961303192E+01 0.68627074735E+01 0.52569398781E+01 0.40471350480E+01 0.31666479907E+01
 0.25482141937E+01 0.21397214016E+01 0.19070675460E+01 0.18315131280E+01 0.19070799944E+01
 0.21397368185E+01 0.25482201978E+01 0.31666193585E+01 0.40470418257E+01 0.52568088663E+01
 0.68626537408E+01 0.88962557524E+01 0.11307607264E+02 0.13965529329E+02 0.19092250342E+02
 0.20915946051E+02 0.21870644240E+02 0.21870740321E+02 0.20916210688E+02 0.19092575837E+02
 0.16622032508E+02 0.13857828367E+02 0.11166073181E+02 0.87808660952E+01 0.67989355445E+01
 0.52568368236E+01 0.41125674962E+01 0.32932023067E+01 0.27310602258E+01 0.23783744605E+01
 0.22078873932E+01 0.22078914786E+01 0.23783860459E+01 0.27310795676E+01 0.32932215473E+01
 0.41125627104E+01 0.52568088663E+01 0.67989520101E+01 0.87809905804E+01 0.11166236789E+02
 0.13857853881E+02 0.16621829723E+02 0.20624124806E+02 0.21585927831E+02 0.21880869865E+02
 0.21585927651E+02 0.20624180305E+02 0.18893425047E+02 0.16491525469E+02 0.13762523302E+02
 0.11110005337E+02 0.87809461664E+01 0.68625806404E+01 0.53878833119E+01 0.43086686183E+01
 0.35491233565E+01 0.30443414049E+01 0.27537876745E+01 0.26586163075E+01 0.27537877983E+01
 0.30443275473E+01 0.35491157444E+01 0.43087070814E+01 0.53879620733E+01 0.68626537408E+01
 0.87809905804E+01 0.11110021050E+02 0.13762488791E+02 0.16491425603E+02 0.18893310984E+02
 0.20550293437E+02 0.20600555009E+02 0.20600598194E+02 0.20550360881E+02 0.20032827003E+02
 0.18648974821E+02 0.16418427457E+02 0.13762492855E+02 0.11166301396E+02 0.88962685659E+01
 0.70462256804E+01 0.56451193753E+01 0.46356576417E+01 0.39402555081E+01 0.35001967002E+01
 0.32852164471E+01 0.32852280630E+01 0.35001939711E+01 0.39402049272E+01 0.46356152114E+01
 0.56451481464E+01 0.70462795754E+01 0.88962557524E+01 0.11166236789E+02 0.13762488791E+02
 0.16418528869E+02 0.18649088335E+02 0.20032843645E+02 0.18975453183E+02 0.18606247189E+02
 0.18975838269E+02 0.19653632870E+02 0.19742007306E+02 0.18648883770E+02 0.16491210929E+02
 0.13857800441E+02 0.11307656040E+02 0.90992279923E+01 0.73349527392E+01 0.60246460377E+01
 0.50975205817E+01 0.44772736130E+01 0.41164687877E+01 0.39972745110E+01 0.41165125014E+01
 0.44772901952E+01 0.50974844206E+01 0.60246071847E+01 0.73349351013E+01 0.90991909565E+01
 0.11307607264E+02 0.13857853881E+02 0.16491425603E+02 0.18649088335E+02 0.19741926386E+02
 0.19653234237E+02 0.17016020600E+02 0.17016260991E+02 0.18243778118E+02 0.19653672527E+02
 0.20032966313E+02 0.18893185770E+02 0.16621658754E+02 0.13965442826E+02 0.11473616179E+02
 0.93605950769E+01 0.77225375090E+01 0.65318344153E+01 0.57061337592E+01 0.51781541122E+01
 0.49172428374E+01 0.49172646285E+01 0.51782088354E+01 0.57061936793E+01 0.65318686207E+01
 0.77225316517E+01 0.93605663983E+01 0.11473615639E+02 0.13965529329E+02 0.16621829723E+02
 0.18893310984E+02 0.20032843645E+02 0.19653234237E+02 0.18243247787E+02 0.17016001360E+02
 0.18605719298E+02 0.20600223145E+02 0.21585994728E+02 0.20916207827E+02 0.18919371278E+02
 0.16372654634E+02 0.13893545863E+02 0.11755913743E+02 0.10086286489E+02 0.88632566239E+01
 0.80025219596E+01 0.74401962465E+01 0.71568076039E+01 0.71567293043E+01 0.74400789949E+01
 0.80025272731E+01 0.88633451442E+01 0.10086325153E+02 0.11755911344E+02 0.13893587828E+02
 0.16372674737E+02 0.18919213164E+02 0.20915929963E+02 0.21585914169E+02 0.20600549215E+02
 0.18606241012E+02 0.17016254865E+02 0.18605719298E+02 0.20498678307E+02 0.22074129853E+02
 0.22270078685E+02 0.20954737628E+02 0.18724686587E+02 0.16291202463E+02 0.14070530467E+02
 0.12254481695E+02 0.10887947551E+02 0.98984860305E+01 0.92077042581E+01 0.87852249519E+01
 0.86408286133E+01 0.87850416534E+01 0.92075340996E+01 0.98984437571E+01 0.10887962908E+02
 0.12254488761E+02 0.14070564867E+02 0.16291243186E+02 0.18724592216E+02 0.20954484365E+02
 0.22269939464E+02 0.22074427645E+02 0.20499359277E+02 0.18606298547E+02 0.17765097618E+02
 0.20600223145E+02 0.22074129853E+02 0.22726353370E+02 0.22061413875E+02 0.20346817772E+02
 0.18198891503E+02 0.16105637906E+02 0.14313228702E+02 0.12927700228E+02 0.11901578883E+02
 0.11147649583E+02 0.10623374426E+02 0.10345144216E+02 0.10345085837E+02 0.10623251889E+02
 0.11147544940E+02 0.11901510542E+02 0.12927659210E+02 0.14313234455E+02 0.16105684151E+02
 0.18198901917E+02 0.20346745476E+02 0.22061344486E+02 0.22726422819E+02 0.22074354316E+02
 0.20600468326E+02 0.19402127091E+02 0.19402022915E+02 0.21585994728E+02 0.22270078685E+02
 0.22061413875E+02 0.20926710357E+02 0.19263388579E+02 0.17514458701E+02 0.15949908585E+02
 0.14714906745E+02 0.13788727090E+02 0.13077254148E+02 0.12521926469E+02 0.12145286058E+02
 0.12009311671E+02 0.12145310951E+02 0.12521925942E+02 0.13077195011E+02 0.13788648095E+02
 0.14714877430E+02 0.15949936084E+02 0.17514488421E+02 0.19263408211E+02 0.20926769060E+02
 0.22061491164E+02 0.22270037000E+02 0.21585770266E+02 0.20614207153E+02 0.20165135107E+02
 0.20614440294E+02 0.20916207827E+02 0.20954737628E+02 0.20346817772E+02 0.19263388579E+02
 0.18019571379E+02 0.16862238383E+02 0.15949895745E+02 0.15278854138E+02 0.14744497260E+02
 0.14269747215E+02 0.13871958247E+02 0.13634550283E+02 0.13634593851E+02 0.13872023548E+02
 0.14269730546E+02 0.14744403160E+02 0.15278786204E+02 0.15949906255E+02 0.16862265140E+02
 0.18019560061E+02 0.19263396879E+02 0.20346909799E+02 0.20954829118E+02 0.20916147852E+02
 0.20420850756E+02 0.19960256016E+02 0.19960363328E+02 0.20421041134E+02 0.18919371278E+02
 0.18724686587E+02 0.18198891503E+02 0.17514458701E+02 0.16862238383E+02 0.16392356688E+02
 0.16105632501E+02 0.15884739280E+02 0.15627352283E+02 0.15320246740E+02 0.15048696537E+02
 0.14938324935E+02 0.15048771193E+02 0.15320276589E+02 0.15627268755E+02 0.15884619864E+02
 0.16105591824E+02 0.16392397051E+02 0.16862263010E+02 0.17514411612E+02 0.18198831444E+02
 0.18724715964E+02 0.18919523243E+02 0.18765754656E+02 0.18468683164E+02 0.18323111425E+02
 0.18468539735E+02 0.18765549379E+02 0.16372654634E+02 0.16291202463E+02 0.16105637906E+02
 0.15949908585E+02 0.15949895745E+02 0.16105632501E+02 0.16291236639E+02 0.16372692233E+02
 0.16285592075E+02 0.16081842434E+02 0.15913052195E+02 0.15913153185E+02 0.16082028841E+02
 0.16285662903E+02 0.16372599929E+02 0.16291107927E+02 0.16105595989E+02 0.15949957286E+02
 0.15949974342E+02 0.16105613893E+02 0.16291093604E+02 0.16372586845E+02 0.16285683489E+02
 0.16082047400E+02 0.15913133508E+02 0.15913025823E+02 0.16081842923E+02 0.16285588342E+02
 0.13893545863E+02 0.14070530467E+02 0.14313228702E+02 0.14714906745E+02 0.15278854138E+02
 0.15884739280E+02 0.16372692233E+02 0.16624217610E+02 0.16621655010E+02 0.16491203207E+02
 0.16418445941E+02 0.16491531151E+02 0.16622000261E+02 0.16624316333E+02 0.16372562574E+02
 0.15884565062E+02 0.15278777848E+02 0.14714964962E+02 0.14313362508E+02 0.14070607996E+02
 0.13893463279E+02 0.13690137646E+02 0.13452846066E+02 0.13247528835E+02 0.13164993822E+02
 0.13247620036E+02 0.13453033717E+02 0.13690341051E+02 0.11755913743E+02 0.12254481695E+02
 0.12927700228E+02 0.13788727090E+02 0.14744497260E+02 0.15627352283E+02 0.16285592075E+02
 0.16621655010E+02 0.16678871577E+02 0.16628651644E+02 0.16628869095E+02 0.16679315323E+02
 0.16621952060E+02 0.16285598714E+02 0.15627184132E+02 0.14744300516E+02 0.13788588552E+02
 0.12927699419E+02 0.12254640480E+02 0.11756097679E+02 0.11366134124E+02 0.11033337520E+02
 0.10762167846E+02 0.10603783602E+02 0.10603908960E+02 0.10762448330E+02 0.11033554282E+02
 0.11366125591E+02 0.10086286489E+02 0.10887947551E+02 0.11901578883E+02 0.13077254148E+02
 0.14269747215E+02 0.15320246740E+02 0.16081842434E+02 0.16491203207E+02 0.16628651644E+02
 0.16648667669E+02 0.16628898511E+02 0.16491472067E+02 0.16081962733E+02 0.15320238938E+02
 0.14269676113E+02 0.13077116066E+02 0.11901398983E+02 0.10887849672E+02 0.10086361742E+02
 0.94720993888E+01 0.89984417213E+01 0.86401397492E+01 0.84067042059E+01 0.83244304736E+01
 0.84067403279E+01 0.86401275498E+01 0.89983162870E+01 0.94719226967E+01 0.88632566239E+01
 0.98984860305E+01 0.11147649583E+02 0.12521926469E+02 0.13871958247E+02 0.15048696537E+02
 0.15913052195E+02 0.16418445941E+02 0.16628869095E+02 0.16628898511E+02 0.16418514871E+02
 0.15913135681E+02 0.15048795653E+02 0.13872063245E+02 0.12521982563E+02 0.11147603239E+02
 0.98983491577E+01 0.88631002220E+01 0.80501478170E+01 0.74279125732E+01 0.69641876592E+01
 0.66470069976E+01 0.64832165636E+01 0.64831224578E+01 0.66468017906E+01 0.69640228382E+01
 0.74278801012E+01 0.80502411774E+01 0.80025219596E+01 0.92077042581E+01 0.10623374426E+02
 0.12145286058E+02 0.13634550283E+02 0.14938324935E+02 0.15913153185E+02 0.16491531151E+02
 0.16679315323E+02 0.16491472067E+02 0.15913135681E+02 0.14938405649E+02 0.13634666856E+02
 0.12145357012E+02 0.10623409797E+02 0.92077502990E+01 0.80025382506E+01 0.70350336375E+01
 0.62854724771E+01 0.57222305788E+01 0.53235145002E+01 0.50825877949E+01 0.50015430783E+01
 0.50824684372E+01 0.53234615667E+01 0.57223570860E+01 0.62856727419E+01 0.70351385507E+01
 0.74401962465E+01 0.87852249519E+01 0.10345144216E+02 0.12009311671E+02 0.13634593851E+02
 0.15048771193E+02 0.16082028841E+02 0.16622000261E+02 0.16621952060E+02 0.16081962733E+02
 0.15048795653E+02 0.13634666856E+02 0.12009297148E+02 0.10345030334E+02 0.87851679211E+01
 0.74403053887E+01 0.63473581390E+01 0.54919947470E+01 0.48420920767E+01 0.43699443814E+01
 0.40597793043E+01 0.39054555369E+01 0.39054737747E+01 0.40598664048E+01 0.43701090557E+01
 0.48422198403E+01 0.54919529638E+01 0.63471869531E+01 0.71568076039E+01 0.86408286133E+01
 0.10345085837E+02 0.12145310951E+02 0.13872023548E+02 0.15320276589E+02 0.16285662903E+02
 0.16624316333E+02 0.16285598714E+02 0.15320238938E+02 0.13872063245E+02 0.12145357012E+02
 0.10345030334E+02 0.86406745452E+01 0.71566880736E+01 0.59408913362E+01 0.49840618644E+01
 0.42524567041E+01 0.37121625273E+01 0.33394168589E+01 0.31204955403E+01 0.30483208449E+01
 0.31205866385E+01 0.33394992701E+01 0.37121262998E+01 0.42522928623E+01 0.49838896818E+01
 0.59408538287E+01 0.71567293043E+01 0.87850416534E+01 0.10623251889E+02 0.12521925942E+02
 0.14269730546E+02 0.15627268755E+02 0.16372599929E+02 0.16372562574E+02 0.15627184132E+02
 0.14269676113E+02 0.12521982563E+02 0.10623409797E+02 0.87851679211E+01 0.71566880736E+01
 0.58049757650E+01 0.47327530643E+01 0.39091422026E+01 0.32957312552E+01 0.28607139109E+01
 0.25822093852E+01 0.24464723595E+01 0.24464884378E+01 0.25821987236E+01 0.28606027855E+01
 0.32955823208E+01 0.39091135241E+01 0.47328991065E+01 0.58051593139E+01 0.74400789949E+01
 0.92075340996E+01 0.11147544940E+02 0.13077195011E+02 0.14744403160E+02 0.15884619864E+02
 0.16291107927E+02 0.15884565062E+02 0.14744300516E+02 0.13077116066E+02 0.11147603239E+02
 0.92077502990E+01 0.74403053887E+01 0.59408913362E+01 0.47327530643E+01 0.37956090867E+01
 0.30922378223E+01 0.25854193900E+01 0.22451685739E+01 0.20499515592E+01 0.19864121058E+01
 0.20499140120E+01 0.22450997613E+01 0.25853866471E+01 0.30923351023E+01 0.37958219738E+01
 0.47329159204E+01 0.59408448855E+01 0.80025272731E+01 0.98984437571E+01 0.11901510542E+02
 0.13788648095E+02 0.15278786204E+02 0.16105591824E+02 0.16105595989E+02 0.15278777848E+02
 0.13788588552E+02 0.11901398983E+02 0.98983491577E+01 0.80025382506E+01 0.63473581390E+01
 0.49840618644E+01 0.39091422026E+01 0.30922378223E+01 0.24952882461E+01 0.20825624194E+01
 0.18248833802E+01 0.17014878163E+01 0.17014713400E+01 0.18248691725E+01 0.20826110535E+01
 0.24953989710E+01 0.30923230736E+01 0.39091106086E+01 0.49839258450E+01 0.63472335648E+01
 0.88633451442E+01 0.10887962908E+02 0.12927659210E+02 0.14714877430E+02 0.15949906255E+02
 0.16392397051E+02 0.15949957286E+02 0.14714964962E+02 0.12927699419E+02 0.10887849672E+02
 0.88631002220E+01 0.70350336375E+01 0.54919947470E+01 0.42524567041E+01 0.32957312552E+01
 0.25854193900E+01 0.20825624194E+01 0.17519449326E+01 0.15656197235E+01 0.15055782500E+01
 0.15656217467E+01 0.17519865223E+01 0.20826176247E+01 0.25853808395E+01 0.32955498459E+01
 0.42522564179E+01 0.54919695539E+01 0.70352257357E+01 0.10086325153E+02 0.12254488761E+02
 0.14313234455E+02 0.15949936084E+02 0.16862265140E+02 0.16862263010E+02 0.15949974342E+02
 0.14313362508E+02 0.12254640480E+02 0.10086361742E+02 0.80501478170E+01 0.62854724771E+01
 0.48420920767E+01 0.37121625273E+01 0.28607139109E+01 0.22451685739E+01 0.18248833802E+01
 0.15656197235E+01 0.14425315022E+01 0.14425346550E+01 0.15656299829E+01 0.18248841667E+01
 0.22451208515E+01 0.28606155920E+01 0.37120954678E+01 0.48421513331E+01 0.62856364694E+01
 0.80502698769E+01 0.11755911344E+02 0.14070564867E+02 0.16105684151E+02 0.17514488421E+02
 0.18019560061E+02 0.17514411612E+02 0.16105613893E+02 0.14070607996E+02 0.11756097679E+02
 0.94720993888E+01 0.74279125732E+01 0.57222305788E+01 0.43699443814E+01 0.33394168589E+01
 0.25822093852E+01 0.20499515592E+01 0.17014878163E+01 0.15055782500E+01 0.14425346550E+01
 0.15055833925E+01 0.17014691498E+01 0.20499165719E+01 0.25822277561E+01 0.33395431034E+01
 0.43701212187E+01 0.57223118062E+01 0.74278068808E+01 0.94718728833E+01 0.13893587828E+02
 0.16291243186E+02 0.18198901917E+02 0.19263408211E+02 0.19263396879E+02 0.18198831444E+02
 0.16291093604E+02 0.13893463279E+02 0.11366134124E+02 0.89984417213E+01 0.69641876592E+01
 0.53235145002E+01 0.40597793043E+01 0.31204955403E+01 0.24464723595E+01 0.19864121058E+01
 0.17014713400E+01 0.15656217467E+01 0.15656299829E+01 0.17014691498E+01 0.19863801433E+01
 0.24464696365E+01 0.31205893367E+01 0.40599144315E+01 0.53235382188E+01 0.69640402640E+01
 0.89982580676E+01 0.11366095550E+02 0.16372674737E+02 0.18724592216E+02 0.20346745476E+02
 0.20926769060E+02 0.20346909799E+02 0.18724715964E+02 0.16372586845E+02 0.13690137646E+02
 0.11033337520E+02 0.86401397492E+01 0.66470069976E+01 0.50825877949E+01 0.39054555369E+01
 0.30483208449E+01 0.24464884378E+01 0.20499140120E+01 0.18248691725E+01 0.17519865223E+01
 0.18248841667E+01 0.20499165719E+01 0.24464696365E+01 0.30482916145E+01 0.39054027512E+01
 0.50824888931E+01 0.66469099306E+01 0.86401643574E+01 0.11033536046E+02 0.13690383166E+02
 0.18919213164E+02 0.20954484365E+02 0.22061344486E+02 0.22061491164E+02 0.20954829118E+02
 0.18919523243E+02 0.16285683489E+02 0.13452846066E+02 0.10762167846E+02 0.84067042059E+01
 0.64832165636E+01 0.50015430783E+01 0.39054737747E+01 0.31205866385E+01 0.25821987236E+01
 0.22450997613E+01 0.20826110535E+01 0.20826176247E+01 0.22451208515E+01 0.25822277561E+01
 0.31205893367E+01 0.39054027512E+01 0.50014104964E+01 0.64831400816E+01 0.84068116663E+01
 0.10762427084E+02 0.13453043531E+02 0.16285620281E+02 0.20915929963E+02 0.22269939464E+02
 0.22726422819E+02 0.22270037000E+02 0.20916147852E+02 0.18765754656E+02 0.16082047400E+02
 0.13247528835E+02 0.10603783602E+02 0.83244304736E+01 0.64831224578E+01 0.50824684372E+01
 0.40598664048E+01 0.33394992701E+01 0.28606027855E+01 0.25853866471E+01 0.24953989710E+01
 0.25853808395E+01 0.28606155920E+01 0.33395431034E+01 0.40599144315E+01 0.50824888931E+01
 0.64831400816E+01 0.83245029819E+01 0.10603890553E+02 0.13247544368E+02 0.16081883114E+02
 0.18765485698E+02 0.21585914169E+02 0.22074427645E+02 0.22074354316E+02 0.21585770266E+02
 0.20420850756E+02 0.18468683164E+02 0.15913133508E+02 0.13164993822E+02 0.10603908960E+02
 0.84067403279E+01 0.66468017906E+01 0.53234615667E+01 0.43701090557E+01 0.37121262998E+01
 0.32955823208E+01 0.30923351023E+01 0.30923230736E+01 0.32955498459E+01 0.37120954678E+01
 0.43701212187E+01 0.53235382188E+01 0.66469099306E+01 0.84068116663E+01 0.10603890553E+02
 0.13164884885E+02 0.15912997401E+02 0.18468621645E+02 0.20420922690E+02 0.20600549215E+02
 0.20499359277E+02 0.20600468326E+02 0.20614207153E+02 0.19960256016E+02 0.18323111425E+02
 0.15913025823E+02 0.13247620036E+02 0.10762448330E+02 0.86401275498E+01 0.69640228382E+01
 0.57223570860E+01 0.48422198403E+01 0.42522928623E+01 0.39091135241E+01 0.37958219738E+01
 0.39091106086E+01 0.42522564179E+01 0.48421513331E+01 0.57223118062E+01 0.69640402640E+01
 0.86401643574E+01 0.10762427084E+02 0.13247544368E+02 0.15912997401E+02 0.18323209476E+02
 0.19960439767E+02 0.20614369618E+02 0.18606241012E+02 0.18606298547E+02 0.19402127091E+02
 0.20165135107E+02 0.19960363328E+02 0.18468539735E+02 0.16081842923E+02 0.13453033717E+02
 0.11033554282E+02 0.89983162870E+01 0.74278801012E+01 0.62856727419E+01 0.54919529638E+01
 0.49838896818E+01 0.47328991065E+01 0.47329159204E+01 0.49839258450E+01 0.54919695539E+01
 0.62856364694E+01 0.74278068808E+01 0.89982580676E+01 0.11033536046E+02 0.13453043531E+02
 0.16081883114E+02 0.18468621645E+02 0.19960439767E+02 0.20165122311E+02 0.19402031577E+02
 0.17016254865E+02 0.17765097618E+02 0.19402022915E+02 0.20614440294E+02 0.20421041134E+02
 0.18765549379E+02 0.16285588342E+02 0.13690341051E+02 0.11366125591E+02 0.94719226967E+01
 0.80502411774E+01 0.70351385507E+01 0.63471869531E+01 0.59408538287E+01 0.58051593139E+01
 0.59408448855E+01 0.63472335648E+01 0.70352257357E+01 0.80502698769E+01 0.94718728833E+01
 0.11366095550E+02 0.13690383166E+02 0.16285620281E+02 0.18765485698E+02 0.20420922690E+02
 0.20614369618E+02 0.19402031577E+02 0.17765131343E+02 0.18975515841E+02 0.20600243781E+02
 0.21880756024E+02 0.21870781845E+02 0.20476753923E+02 0.18262859049E+02 0.15884721445E+02
 0.13721402215E+02 0.11955970772E+02 0.10626925377E+02 0.96631523413E+01 0.89897312804E+01
 0.85780066281E+01 0.84373890816E+01 0.85778694140E+01 0.89896318404E+01 0.96631810766E+01
 0.10626993174E+02 0.11955996025E+02 0.13721421779E+02 0.15884750419E+02 0.18262798671E+02
 0.20476559308E+02 0.21870621675E+02 0.21880861108E+02 0.20600608265E+02 0.18975847043E+02
 0.18243785436E+02 0.20600243781E+02 0.22074151350E+02 0.22726361613E+02 0.22061409981E+02
 0.20346813542E+02 0.18198885534E+02 0.16105619812E+02 0.14313203010E+02 0.12927682190E+02
 0.11901569957E+02 0.11147640123E+02 0.10623366386E+02 0.10345147412E+02 0.10345095607E+02
 0.10623254386E+02 0.11147541262E+02 0.11901512514E+02 0.12927665252E+02 0.14313233047E+02
 0.16105677134E+02 0.18198900695E+02 0.20346748088E+02 0.22061340239E+02 0.22726415907E+02
 0.22074359083E+02 0.20600484453E+02 0.19402142481E+02 0.19402036996E+02 0.21880756024E+02
 0.22726361613E+02 0.22617024816E+02 0.21501659808E+02 0.19804053731E+02 0.18004873051E+02