   2   2   0   0
  0.5673086E+01  0.2522250E-09  0.2522250E-09  0.2522250E-09  0.5000000E-15
  1.000000000000000E-004
  CAR 
 Diamond                                 
     63.70706770    -15.25880544  301      9.51673726      1.00000000
    -15.259  0.0000E+00  0.0000E+00
    -14.996  0.0000E+00  0.0000E+00
    -14.732  0.0000E+00  0.0000E+00
    -14.469  0.0000E+00  0.0000E+00
    -14.206  0.0000E+00  0.0000E+00
    -13.943  0.0000E+00  0.0000E+00
    -13.679  0.0000E+00  0.0000E+00
    -13.416  0.0000E+00  0.0000E+00
    -13.153  0.0000E+00  0.0000E+00
    -12.890  0.0000E+00  0.0000E+00
    -12.627  0.0000E+00  0.0000E+00
    -12.363  0.0000E+00  0.0000E+00
    -12.100  0.3947E-11  0.1039E-11
    -11.837  0.8877E-04  0.2337E-04
    -11.574  0.1943E-01  0.5137E-02
    -11.311  0.2037E-01  0.1050E-01
    -11.047  0.1254E-01  0.1380E-01
    -10.784  0.1003E-01  0.1644E-01
    -10.521  0.8630E-02  0.1871E-01
    -10.258  0.7703E-02  0.2074E-01
     -9.994  0.7032E-02  0.2259E-01
     -9.731  0.6519E-02  0.2431E-01
     -9.468  0.6112E-02  0.2592E-01
     -9.205  0.5781E-02  0.2744E-01
     -8.942  0.5506E-02  0.2889E-01
     -8.678  0.5274E-02  0.3027E-01
     -8.415  0.5079E-02  0.3161E-01
     -8.152  0.4914E-02  0.3291E-01
     -7.889  0.4777E-02  0.3416E-01
     -7.625  0.4666E-02  0.3539E-01
     -7.362  0.4585E-02  0.3660E-01
     -7.099  0.4542E-02  0.3779E-01
     -6.836  0.4559E-02  0.3899E-01
     -6.573  0.4713E-02  0.4023E-01
     -6.309  0.6418E-02  0.4192E-01
     -6.046  0.1775E-01  0.4660E-01
     -5.783  0.1032E-01  0.4931E-01
     -5.520  0.8066E-02  0.5143E-01
     -5.256  0.7106E-02  0.5331E-01
     -4.993  0.6545E-02  0.5503E-01
     -4.730  0.6188E-02  0.5666E-01
     -4.467  0.5968E-02  0.5823E-01
     -4.204  0.5864E-02  0.5977E-01
     -3.940  0.5900E-02  0.6132E-01
     -3.677  0.1425E-01  0.6507E-01
     -3.414  0.3619E-01  0.7460E-01
     -3.151  0.1334E+00  0.1097E+00
     -2.887  0.5930E-01  0.1253E+00
     -2.624  0.6018E-01  0.1412E+00
     -2.361  0.2721E-01  0.1483E+00
     -2.098  0.1633E-01  0.1526E+00
     -1.835  0.1462E-01  0.1565E+00
     -1.571  0.4499E-02  0.1576E+00
     -1.308  0.4206E-02  0.1588E+00
     -1.045  0.4070E-02  0.1598E+00
     -0.782  0.3937E-02  0.1609E+00
     -0.519  0.3834E-02  0.1619E+00
     -0.255  0.3754E-02  0.1629E+00
      0.008  0.4123E-02  0.1639E+00
      0.271  0.1327E-01  0.1674E+00
      0.534  0.1364E-01  0.1710E+00
      0.798  0.1557E-01  0.1751E+00
      1.061  0.2056E-01  0.1805E+00
      1.324  0.3750E-01  0.1904E+00
      1.587  0.3179E-01  0.1988E+00
      1.850  0.2665E-01  0.2058E+00
      2.114  0.2520E-01  0.2124E+00
      2.377  0.2514E-01  0.2190E+00
      2.640  0.2649E-01  0.2260E+00
      2.903  0.3177E-01  0.2344E+00
      3.167  0.7303E-01  0.2536E+00
      3.430  0.4418E-01  0.2652E+00
      3.693  0.2980E-01  0.2731E+00
      3.956  0.2541E-01  0.2798E+00
      4.219  0.1848E-01  0.2846E+00
      4.483  0.1669E-01  0.2890E+00
      4.746  0.1621E-01  0.2933E+00
      5.009  0.1598E-01  0.2975E+00
      5.272  0.1596E-01  0.3017E+00
      5.536  0.1619E-01  0.3059E+00
      5.799  0.1679E-01  0.3104E+00
      6.062  0.1819E-01  0.3152E+00
      6.325  0.2666E-01  0.3222E+00
      6.588  0.4404E-01  0.3338E+00
      6.852  0.2521E-01  0.3404E+00
      7.115  0.2165E-01  0.3461E+00
      7.378  0.2032E-01  0.3514E+00
      7.641  0.1986E-01  0.3567E+00
      7.905  0.2001E-01  0.3619E+00
      8.168  0.2082E-01  0.3674E+00
      8.431  0.2264E-01  0.3734E+00
      8.694  0.2674E-01  0.3804E+00
      8.957  0.4300E-01  0.3917E+00
      9.221  0.3131E-01  0.4000E+00
      9.484  0.5682E-04  0.4000E+00
      9.747  0.6928E-12  0.4000E+00
     10.010  0.0000E+00  0.4000E+00
     10.273  0.0000E+00  0.4000E+00
     10.537  0.0000E+00  0.4000E+00
     10.800  0.0000E+00  0.4000E+00
     11.063  0.0000E+00  0.4000E+00
     11.326  0.0000E+00  0.4000E+00
     11.590  0.0000E+00  0.4000E+00
     11.853  0.0000E+00  0.4000E+00
     12.116  0.0000E+00  0.4000E+00
     12.379  0.1786E-16  0.4000E+00
     12.642  0.1483E-06  0.4000E+00
     12.906  0.3633E-02  0.4010E+00
     13.169  0.1941E-01  0.4061E+00
     13.432  0.1225E-01  0.4093E+00
     13.695  0.5762E-01  0.4245E+00
     13.959  0.4335E-01  0.4359E+00
     14.222  0.3345E-01  0.4447E+00
     14.485  0.6125E-01  0.4608E+00
     14.748  0.4881E-01  0.4736E+00
     15.011  0.3527E-01  0.4829E+00
     15.275  0.3142E-01  0.4912E+00
     15.538  0.2958E-01  0.4990E+00
     15.801  0.2881E-01  0.5066E+00
     16.064  0.2895E-01  0.5142E+00
     16.328  0.3015E-01  0.5221E+00
     16.591  0.3329E-01  0.5309E+00
     16.854  0.4500E-01  0.5427E+00
     17.117  0.1048E+00  0.5703E+00
     17.380  0.6708E-01  0.5880E+00
     17.644  0.2669E-01  0.5950E+00
     17.907  0.2371E-01  0.6012E+00
     18.170  0.2216E-01  0.6071E+00
     18.433  0.2125E-01  0.6127E+00
     18.697  0.2081E-01  0.6181E+00
     18.960  0.2091E-01  0.6236E+00
     19.223  0.2356E-01  0.6298E+00
     19.486  0.2237E-01  0.6357E+00
     19.749  0.8894E-02  0.6381E+00
     20.013  0.8331E-02  0.6403E+00
     20.276  0.8439E-02  0.6425E+00
     20.539  0.1720E-01  0.6470E+00
     20.802  0.2517E-01  0.6536E+00
     21.065  0.4795E-01  0.6663E+00
     21.329  0.3530E-01  0.6756E+00
     21.592  0.2790E-01  0.6829E+00
     21.855  0.4246E-01  0.6941E+00
     22.118  0.2900E-01  0.7017E+00
     22.382  0.2264E-01  0.7077E+00
     22.645  0.1961E-01  0.7128E+00
     22.908  0.2131E-01  0.7184E+00
     23.171  0.2215E-01  0.7243E+00
     23.434  0.2378E-01  0.7305E+00
     23.698  0.2788E-01  0.7379E+00
     23.961  0.4099E-01  0.7487E+00
     24.224  0.4909E-01  0.7616E+00
     24.487  0.3318E-01  0.7703E+00
     24.751  0.4829E-01  0.7830E+00
     25.014  0.6335E-01  0.7997E+00
     25.277  0.4135E-02  0.8008E+00
     25.540  0.3452E-02  0.8017E+00
     25.803  0.2418E-02  0.8023E+00
     26.067  0.2141E-02  0.8029E+00
     26.330  0.3782E-02  0.8039E+00
     26.593  0.1041E-01  0.8066E+00
     26.856  0.7324E-02  0.8086E+00
     27.120  0.8193E-02  0.8107E+00
     27.383  0.1292E-01  0.8141E+00
     27.646  0.2843E-01  0.8216E+00
     27.909  0.2740E-01  0.8288E+00
     28.172  0.2260E-01  0.8348E+00
     28.436  0.2236E-01  0.8406E+00
     28.699  0.3286E-01  0.8493E+00
     28.962  0.3538E-01  0.8586E+00
     29.225  0.3451E-01  0.8677E+00
     29.489  0.5015E-01  0.8809E+00
     29.752  0.4196E-01  0.8919E+00
     30.015  0.3994E-01  0.9025E+00
     30.278  0.2791E-01  0.9098E+00
     30.541  0.2750E-01  0.9170E+00
     30.805  0.4403E-01  0.9286E+00
     31.068  0.7024E-01  0.9471E+00
     31.331  0.6508E-01  0.9642E+00
     31.594  0.4847E-01  0.9770E+00
     31.857  0.3375E-01  0.9859E+00
     32.121  0.5511E-01  0.1000E+01
     32.384  0.2593E-01  0.1007E+01
     32.647  0.2200E-01  0.1013E+01
     32.910  0.2544E-01  0.1020E+01
     33.174  0.1507E-01  0.1024E+01
     33.437  0.2002E-01  0.1029E+01
     33.700  0.1892E-01  0.1034E+01
     33.963  0.4006E-01  0.1044E+01
     34.226  0.2980E-01  0.1052E+01
     34.490  0.1816E-01  0.1057E+01
     34.753  0.2255E-01  0.1063E+01
     35.016  0.1854E-01  0.1068E+01
     35.279  0.1326E-01  0.1071E+01
     35.543  0.1337E-01  0.1075E+01
     35.806  0.3553E-01  0.1084E+01
     36.069  0.2523E-01  0.1091E+01
     36.332  0.2024E-01  0.1096E+01
     36.595  0.1849E-01  0.1101E+01
     36.859  0.1740E-01  0.1106E+01
     37.122  0.1674E-01  0.1110E+01
     37.385  0.1619E-01  0.1114E+01
     37.648  0.1568E-01  0.1118E+01
     37.912  0.1548E-01  0.1123E+01
     38.175  0.1606E-01  0.1127E+01
     38.438  0.4634E-01  0.1139E+01
     38.701  0.3628E-01  0.1149E+01
     38.964  0.2918E-01  0.1156E+01
     39.228  0.2730E-01  0.1163E+01
     39.491  0.2933E-01  0.1171E+01
     39.754  0.2580E-01  0.1178E+01
     40.017  0.2433E-01  0.1184E+01
     40.281  0.4465E-01  0.1196E+01
     40.544  0.2751E-01  0.1203E+01
     40.807  0.2011E-01  0.1209E+01
     41.070  0.2976E-01  0.1216E+01
     41.333  0.2444E-01  0.1223E+01
     41.597  0.2112E-01  0.1228E+01
     41.860  0.3309E-01  0.1237E+01
     42.123  0.4085E-01  0.1248E+01
     42.386  0.2546E-01  0.1255E+01
     42.650  0.2156E-01  0.1260E+01
     42.913  0.1677E-01  0.1265E+01
     43.176  0.1420E-01  0.1268E+01
     43.439  0.1316E-01  0.1272E+01
     43.702  0.1242E-01  0.1275E+01
     43.966  0.1183E-01  0.1278E+01
     44.229  0.1134E-01  0.1281E+01
     44.492  0.1116E-01  0.1284E+01
     44.755  0.1087E-01  0.1287E+01
     45.018  0.1049E-01  0.1290E+01
     45.282  0.1040E-01  0.1293E+01
     45.545  0.1039E-01  0.1295E+01
     45.808  0.1152E-01  0.1298E+01
     46.071  0.5247E-01  0.1312E+01
     46.335  0.3856E-01  0.1322E+01
     46.598  0.3007E-01  0.1330E+01
     46.861  0.2633E-01  0.1337E+01
     47.124  0.2823E-01  0.1345E+01
     47.387  0.2768E-01  0.1352E+01
     47.651  0.2835E-01  0.1359E+01
     47.914  0.2591E-01  0.1366E+01
     48.177  0.2628E-01  0.1373E+01
     48.440  0.2072E-01  0.1378E+01
     48.704  0.1930E-01  0.1384E+01
     48.967  0.2187E-01  0.1389E+01
     49.230  0.3023E-01  0.1397E+01
     49.493  0.2883E-01  0.1405E+01
     49.756  0.3542E-01  0.1414E+01
     50.020  0.3167E-01  0.1423E+01
     50.283  0.3081E-01  0.1431E+01
     50.546  0.4267E-01  0.1442E+01
     50.809  0.4923E-01  0.1455E+01
     51.073  0.2274E-01  0.1461E+01
     51.336  0.2033E-01  0.1466E+01
     51.599  0.1928E-01  0.1471E+01
     51.862  0.3589E-01  0.1481E+01
     52.125  0.3828E-01  0.1491E+01
     52.389  0.3651E-01  0.1500E+01
     52.652  0.4836E-01  0.1513E+01
     52.915  0.5415E-01  0.1527E+01
     53.178  0.4463E-01  0.1539E+01
     53.442  0.2302E-01  0.1545E+01
     53.705  0.2278E-01  0.1551E+01
     53.968  0.2653E-01  0.1558E+01
     54.231  0.2486E-01  0.1565E+01
     54.494  0.1381E-01  0.1568E+01
     54.758  0.1360E-01  0.1572E+01
     55.021  0.1372E-01  0.1576E+01
     55.284  0.1302E-01  0.1579E+01
     55.547  0.1688E-01  0.1583E+01
     55.810  0.1469E-01  0.1587E+01
     56.074  0.2363E-02  0.1588E+01
     56.337  0.2346E-02  0.1588E+01
     56.600  0.2381E-02  0.1589E+01
     56.863  0.2431E-02  0.1590E+01
     57.127  0.2494E-02  0.1590E+01
     57.390  0.2496E-02  0.1591E+01
     57.653  0.2486E-02  0.1592E+01
     57.916  0.2471E-02  0.1592E+01
     58.179  0.2465E-02  0.1593E+01
     58.443  0.2483E-02  0.1594E+01
     58.706  0.2528E-02  0.1594E+01
     58.969  0.2603E-02  0.1595E+01
     59.232  0.2720E-02  0.1596E+01
     59.496  0.2913E-02  0.1597E+01
     59.759  0.3429E-02  0.1597E+01
     60.022  0.4911E-02  0.1599E+01
     60.285  0.4882E-02  0.1600E+01
     60.548  0.2445E-04  0.1600E+01
     60.812  0.1160E-11  0.1600E+01
     61.075  0.0000E+00  0.1600E+01
     61.338  0.0000E+00  0.1600E+01
     61.601  0.0000E+00  0.1600E+01
     61.865  0.0000E+00  0.1600E+01
     62.128  0.0000E+00  0.1600E+01
     62.391  0.0000E+00  0.1600E+01
     62.654  0.0000E+00  0.1600E+01
     62.917  0.0000E+00  0.1600E+01
     63.181  0.0000E+00  0.1600E+01
     63.444  0.0000E+00  0.1600E+01
     63.707  0.0000E+00  0.1600E+01
