    2    2   20    1
  0.5673086E+01  0.2522250E-09  0.2522250E-09  0.2522250E-09  0.5000000E-15
  1.000000000000000E-004
  CAR 
 Diamond                                 
      8    600     16
 
  0.0000000E+00  0.0000000E+00  0.0000000E+00  0.1666667E-02
    1      -11.669448   1.000000
    2        9.026419   1.000000
    3        9.026542   1.000000
    4        9.026542   1.000000
    5       14.394290   0.000000
    6       14.394462   0.000000
    7       14.394462   0.000000
    8       20.893889   0.000000
    9       27.388290   0.000000
   10       34.722792   0.000000
   11       34.722792   0.000000
   12       35.663585   0.000000
   13       35.663635   0.000000
   14       35.663635   0.000000
   15       42.506198   0.000000
   16       54.065789   0.000000
 
  0.5050505E-02  0.0000000E+00  0.5050505E-02  0.1666667E-02
    1      -11.668546   1.000000
    2        9.022640   1.000000
    3        9.022724   1.000000
    4        9.024118   1.000000
    5       14.393628   0.000000
    6       14.398926   0.000000
    7       14.399039   0.000000
    8       20.894921   0.000000
    9       27.389970   0.000000
   10       34.646330   0.000000
   11       34.723935   0.000000
   12       35.665714   0.000000
   13       35.665747   0.000000
   14       35.737431   0.000000
   15       42.514311   0.000000
   16       54.062632   0.000000
 
  0.1010101E-01  0.0000000E+00  0.1010101E-01  0.1666667E-02
    1      -11.665838   1.000000
    2        9.011229   1.000000
    3        9.011312   1.000000
    4        9.016963   1.000000
    5       14.391303   0.000000
    6       14.412613   0.000000
    7       14.412728   0.000000
    8       20.898004   0.000000
    9       27.395005   0.000000
   10       34.462780   0.000000
   11       34.727363   0.000000
   12       35.672049   0.000000
   13       35.672082   0.000000
   14       35.912993   0.000000
   15       42.538694   0.000000
   16       54.053505   0.000000
 
  0.1515152E-01  0.0000000E+00  0.1515152E-01  0.1666667E-02
    1      -11.661322   1.000000
    2        8.992346   1.000000
    3        8.992429   1.000000
    4        9.005059   1.000000
    5       14.387435   0.000000
    6       14.435289   0.000000
    7       14.435404   0.000000
    8       20.903095   0.000000
    9       27.403385   0.000000
   10       34.230804   0.000000
   11       34.733076   0.000000
   12       35.682607   0.000000
   13       35.682640   0.000000
   14       36.131530   0.000000
   15       42.579488   0.000000
   16       54.038441   0.000000
 
  0.2020202E-01  0.0000000E+00  0.2020202E-01  0.1666667E-02
    1      -11.655000   1.000000
    2        8.966193   1.000000
    3        8.966275   1.000000
    4        8.988430   1.000000
    5       14.382035   0.000000
    6       14.466753   0.000000
    7       14.466868   0.000000
    8       20.910125   0.000000
    9       27.415095   0.000000
   10       33.977633   0.000000
   11       34.741074   0.000000
   12       35.697385   0.000000
   13       35.697419   0.000000
   14       36.365635   0.000000
   15       42.636907   0.000000
   16       54.017770   0.000000
 
  0.2525253E-01  0.0000000E+00  0.2525253E-01  0.1666667E-02
    1      -11.646872   1.000000
    2        8.933036   1.000000
    3        8.933118   1.000000
    4        8.967112   1.000000
    5       14.375119   0.000000
    6       14.506735   0.000000
    7       14.506850   0.000000
    8       20.918996   0.000000
    9       27.430112   0.000000
   10       33.714418   0.000000
   11       34.751358   0.000000
   12       35.716382   0.000000
   13       35.716416   0.000000
   14       36.603940   0.000000
   15       42.711230   0.000000
   16       53.990214   0.000000
 
  0.3030303E-01  0.0000000E+00  0.3030303E-01  0.1666667E-02
    1      -11.636937   1.000000
    2        8.893199   1.000000
    3        8.893280   1.000000
    4        8.941146   1.000000
    5       14.366706   0.000000
    6       14.554909   0.000000
    7       14.555025   0.000000
    8       20.929585   0.000000
    9       27.448408   0.000000
   10       33.446325   0.000000
   11       34.763927   0.000000
   12       35.739595   0.000000
   13       35.739629   0.000000
   14       36.841043   0.000000
   15       42.802767   0.000000
   16       53.957156   0.000000
 
  0.3535354E-01  0.0000000E+00  0.3535354E-01  0.1666667E-02
    1      -11.625197   1.000000
    2        8.847049   1.000000
    3        8.847130   1.000000
    4        8.910586   1.000000
    5       14.356818   0.000000
    6       14.610904   0.000000
    7       14.611021   0.000000
    8       20.941739   0.000000
    9       27.469947   0.000000
   10       33.176145   0.000000
   11       34.778781   0.000000
   12       35.767020   0.000000
   13       35.767053   0.000000
   14       37.073937   0.000000
   15       42.911829   0.000000
   16       53.918576   0.000000
 
  0.4040404E-01  0.0000000E+00  0.4040404E-01  0.1666667E-02
    1      -11.611696   1.000000
    2        8.794817   1.000000
    3        8.794897   1.000000
    4        8.875183   1.000000
    5       14.344802   0.000000
    6       14.674108   0.000000
    7       14.674225   0.000000
    8       20.955275   0.000000
    9       27.494689   0.000000
   10       32.905528   0.000000
   11       34.795920   0.000000
   12       35.798633   0.000000
   13       35.798667   0.000000
   14       37.300629   0.000000
   15       43.038373   0.000000
   16       53.870364   0.000000
 
  0.4545455E-01  0.0000000E+00  0.4545455E-01  0.1666667E-02
    1      -11.596347   1.000000
    2        8.737251   1.000000
    3        8.737330   1.000000
    4        8.835613   1.000000
    5       14.332032   0.000000
    6       14.744523   0.000000
    7       14.744642   0.000000
    8       20.969985   0.000000
    9       27.522585   0.000000
   10       32.635856   0.000000
   11       34.815344   0.000000
   12       35.834464   0.000000
   13       35.834498   0.000000
   14       37.520038   0.000000
   15       43.183194   0.000000
   16       53.819556   0.000000
 
  0.5050505E-01  0.0000000E+00  0.5050505E-01  0.1666667E-02
    1      -11.579195   1.000000
    2        8.674621   1.000000
    3        8.674701   1.000000
    4        8.791653   1.000000
    5       14.317882   0.000000
    6       14.821500   0.000000
    7       14.821619   0.000000
    8       20.985634   0.000000
    9       27.553582   0.000000
   10       32.367962   0.000000
   11       34.837054   0.000000
   12       35.874491   0.000000
   13       35.874525   0.000000
   14       37.731199   0.000000
   15       43.346105   0.000000
   16       53.762759   0.000000
 
  0.5555556E-01  0.0000000E+00  0.5555556E-01  0.1666667E-02
    1      -11.560241   1.000000
    2        8.607358   1.000000
    3        8.607437   1.000000
    4        8.743388   1.000000
    5       14.302390   0.000000
    6       14.904605   0.000000
    7       14.904725   0.000000
    8       21.001957   0.000000
    9       27.587624   0.000000
   10       32.102603   0.000000
   11       34.861048   0.000000
   12       35.918706   0.000000
   13       35.918741   0.000000
   14       37.933574   0.000000
   15       43.527056   0.000000
   16       53.699906   0.000000
 
  0.6060606E-01  0.0000000E+00  0.6060606E-01  0.1666667E-02
    1      -11.539572   1.000000
    2        8.535286   1.000000
    3        8.535369   1.000000
    4        8.690672   1.000000
    5       14.284916   0.000000
    6       14.992905   0.000000
    7       14.993029   0.000000
    8       21.018662   0.000000
    9       27.624647   0.000000
   10       31.840378   0.000000
   11       34.887302   0.000000
   12       35.966620   0.000000
   13       35.966656   0.000000
   14       38.126903   0.000000
   15       43.725458   0.000000
   16       53.619981   0.000000
 
  0.6565657E-01  0.0000000E+00  0.6565657E-01  0.1666667E-02
    1      -11.517016   1.000000
    2        8.459987   1.000000
    3        8.460069   1.000000
    4        8.634055   1.000000
    5       14.266857   0.000000
    6       15.087017   0.000000
    7       15.087142   0.000000
    8       21.035430   0.000000
    9       27.664582   0.000000
   10       31.581996   0.000000
   11       34.915866   0.000000
   12       36.019164   0.000000
   13       36.019200   0.000000
   14       38.311188   0.000000
   15       43.941667   0.000000
   16       53.546000   0.000000
 
  0.7070707E-01  0.0000000E+00  0.7070707E-01  0.1666667E-02
    1      -11.492662   1.000000
    2        8.381276   1.000000
    3        8.381358   1.000000
    4        8.573405   1.000000
    5       14.247588   0.000000
    6       15.186018   0.000000
    7       15.186144   0.000000
    8       21.051912   0.000000
    9       27.707356   0.000000
   10       31.327962   0.000000
   11       34.946715   0.000000
   12       36.075868   0.000000
   13       36.075905   0.000000
   14       38.486639   0.000000
   15       44.174793   0.000000
   16       53.466900   0.000000
 
  0.7575758E-01  0.0000000E+00  0.7575758E-01  0.1666667E-02
    1      -11.466512   1.000000
    2        8.299473   1.000000
    3        8.299554   1.000000
    4        8.508012   1.000000
    5       14.227157   0.000000
    6       15.289521   0.000000
    7       15.289648   0.000000
    8       21.067281   0.000000
    9       27.752864   0.000000
   10       31.078263   0.000000
   11       34.979850   0.000000
   12       36.136694   0.000000
   13       36.136731   0.000000
   14       38.653258   0.000000
   15       44.422819   0.000000
   16       53.381249   0.000000
 
  0.8080808E-01  0.0000000E+00  0.8080808E-01  0.1666667E-02
    1      -11.438568   1.000000
    2        8.215025   1.000000
    3        8.215105   1.000000
    4        8.439564   1.000000
    5       14.205620   0.000000
    6       15.397194   0.000000
    7       15.397322   0.000000
    8       21.081963   0.000000
    9       27.801080   0.000000
   10       30.834565   0.000000
   11       35.015269   0.000000
   12       36.201684   0.000000
   13       36.201722   0.000000
   14       38.812443   0.000000
   15       44.687445   0.000000
   16       53.290902   0.000000
 
  0.8585859E-01  0.0000000E+00  0.8585859E-01  0.1666667E-02
    1      -11.408828   1.000000
    2        8.128208   1.000000
    3        8.128288   1.000000
    4        8.367384   1.000000
    5       14.183028   0.000000
    6       15.508694   0.000000
    7       15.508823   0.000000
    8       21.095151   0.000000
    9       27.851889   0.000000
   10       30.596785   0.000000
   11       35.052973   0.000000
   12       36.270798   0.000000
   13       36.270836   0.000000
   14       38.964414   0.000000
   15       44.966634   0.000000
   16       53.194754   0.000000
 
  0.9090909E-01  0.0000000E+00  0.9090909E-01  0.1666667E-02
    1      -11.377296   1.000000
    2        8.039325   1.000000
    3        8.039405   1.000000
    4        8.291577   1.000000
    5       14.159436   0.000000
    6       15.623711   0.000000
    7       15.623842   0.000000
    8       21.106394   0.000000
    9       27.905202   0.000000
   10       30.365431   0.000000
   11       35.092962   0.000000
   12       36.344021   0.000000
   13       36.344059   0.000000
   14       39.109905   0.000000
   15       45.259465   0.000000
   16       53.093339   0.000000
 
  0.9595960E-01  0.0000000E+00  0.9595960E-01  0.1666667E-02
    1      -11.343951   1.000000
    2        7.948656   1.000000
    3        7.948735   1.000000
    4        8.212247   1.000000
    5       14.136044   0.000000
    6       15.742111   0.000000
    7       15.742243   0.000000
    8       21.115218   0.000000
    9       27.961701   0.000000
   10       30.141014   0.000000
   11       35.135236   0.000000
   12       36.421411   0.000000
   13       36.421450   0.000000
   14       39.249688   0.000000
   15       45.565002   0.000000
   16       52.988802   0.000000
 
  0.1010101E+00  0.0000000E+00  0.1010101E+00  0.1666667E-02
    1      -11.308838   1.000000
    2        7.856458   1.000000
    3        7.856536   1.000000
    4        8.129497   1.000000
    5       14.110549   0.000000
    6       15.863319   0.000000
    7       15.863453   0.000000
    8       21.121133   0.000000
    9       28.019814   0.000000
   10       29.924046   0.000000
   11       35.179794   0.000000
   12       36.502800   0.000000
   13       36.502839   0.000000
   14       39.384539   0.000000
   15       45.882315   0.000000
   16       52.877551   0.000000
 
  0.1060606E+00  0.0000000E+00  0.1060606E+00  0.1666667E-02
    1      -11.271938   1.000000
    2        7.762969   1.000000
    3        7.763047   1.000000
    4        8.043430   1.000000
    5       14.084232   0.000000
    6       15.987245   0.000000
    7       15.987380   0.000000
    8       21.123632   0.000000
    9       28.080140   0.000000
   10       29.715036   0.000000
   11       35.226637   0.000000
   12       36.588241   0.000000
   13       36.588281   0.000000
   14       39.515221   0.000000
   15       46.210505   0.000000
   16       52.760883   0.000000
 
  0.1111111E+00  0.0000000E+00  0.1111111E+00  0.1666667E-02
    1      -11.233252   1.000000
    2        7.668409   1.000000
    3        7.668487   1.000000
    4        7.954147   1.000000
    5       14.057151   0.000000
    6       16.113662   0.000000
    7       16.113798   0.000000
    8       21.122199   0.000000
    9       28.142578   0.000000
   10       29.514492   0.000000
   11       35.275765   0.000000
   12       36.677713   0.000000
   13       36.677754   0.000000
   14       39.642465   0.000000
   15       46.548714   0.000000
   16       52.639768   0.000000
 
  0.1161616E+00  0.0000000E+00  0.1161616E+00  0.1666667E-02
    1      -11.192782   1.000000
    2        7.572979   1.000000
    3        7.573055   1.000000
    4        7.861749   1.000000
    5       14.029367   0.000000
    6       16.242359   0.000000
    7       16.242497   0.000000
    8       21.116313   0.000000
    9       28.207021   0.000000
   10       29.322913   0.000000
   11       35.327177   0.000000
   12       36.771190   0.000000
   13       36.771231   0.000000
   14       39.766959   0.000000
   15       46.896139   0.000000
   16       52.513960   0.000000
 
  0.1212121E+00  0.0000000E+00  0.1212121E+00  0.1666667E-02
    1      -11.150532   1.000000
    2        7.476861   1.000000
    3        7.476937   1.000000
    4        7.766333   1.000000
    5       14.000941   0.000000
    6       16.373142   0.000000
    7       16.373282   0.000000
    8       21.105461   0.000000
    9       28.273361   0.000000
   10       29.140787   0.000000
   11       35.380874   0.000000
   12       36.868645   0.000000
   13       36.868687   0.000000
   14       39.889340   0.000000
   15       47.252032   0.000000
   16       52.384208   0.000000
 
  0.1262626E+00  0.0000000E+00  0.1262626E+00  0.1666667E-02
    1      -11.106504   1.000000
    2        7.380229   1.000000
    3        7.380305   1.000000
    4        7.667998   1.000000
    5       13.971934   0.000000
    6       16.505833   0.000000
    7       16.505974   0.000000
    8       21.089142   0.000000
    9       28.341486   0.000000
   10       28.968576   0.000000
   11       35.436855   0.000000
   12       36.970048   0.000000
   13       36.970091   0.000000
   14       40.010197   0.000000
   15       47.615703   0.000000
   16       52.249801   0.000000
 
  0.1313131E+00  0.0000000E+00  0.1313131E+00  0.1666667E-02
    1      -11.060699   1.000000
    2        7.283237   1.000000
    3        7.283311   1.000000
    4        7.566838   1.000000
    5       13.942408   0.000000
    6       16.640265   0.000000
    7       16.640407   0.000000
    8       21.066882   0.000000
    9       28.411284   0.000000
   10       28.806713   0.000000
   11       35.495120   0.000000
   12       37.075367   0.000000
   13       37.075411   0.000000
   14       40.130063   0.000000
   15       47.986517   0.000000
   16       52.111318   0.000000
 
  0.1363636E+00  0.0000000E+00  0.1363636E+00  0.1666667E-02
    1      -11.013122   1.000000
    2        7.186026   1.000000
    3        7.186100   1.000000
    4        7.462944   1.000000
    5       13.912424   0.000000
    6       16.776286   0.000000
    7       16.776430   0.000000
    8       21.038243   0.000000
    9       28.482640   0.000000
   10       28.655588   0.000000
   11       35.555669   0.000000
   12       37.184565   0.000000
   13       37.184610   0.000000
   14       40.249426   0.000000
   15       48.363895   0.000000
   16       51.969040   0.000000
 
  0.1414141E+00  0.0000000E+00  0.1414141E+00  0.1666667E-02
    1      -10.963774   1.000000
    2        7.088728   1.000000
    3        7.088802   1.000000
    4        7.356403   1.000000
    5       13.882042   0.000000
    6       16.913752   0.000000
    7       16.913898   0.000000
    8       21.002836   0.000000
    9       28.515539   0.000000
   10       28.555437   0.000000
   11       35.618503   0.000000
   12       37.297603   0.000000
   13       37.297648   0.000000
   14       40.368722   0.000000
   15       48.747307   0.000000
   16       51.822621   0.000000
 
  0.1464646E+00  0.0000000E+00  0.1464646E+00  0.1666667E-02
    1      -10.912659   1.000000
    2        6.991465   1.000000
    3        6.991538   1.000000
    4        7.247303   1.000000
    5       13.851323   0.000000
    6       17.052529   0.000000
    7       17.052677   0.000000
    8       20.960335   0.000000
    9       28.386838   0.000000
   10       28.629557   0.000000
   11       35.683621   0.000000
   12       37.414436   0.000000
   13       37.414482   0.000000
   14       40.488349   0.000000
   15       49.136264   0.000000
   16       51.672859   0.000000
 
  0.1515152E+00  0.0000000E+00  0.1515152E+00  0.1666667E-02
    1      -10.859783   1.000000
    2        6.894348   1.000000
    3        6.894420   1.000000
    4        7.135726   1.000000
    5       13.820327   0.000000
    6       17.192496   0.000000
    7       17.192645   0.000000
    8       20.910485   0.000000
    9       28.269684   0.000000
   10       28.704880   0.000000
   11       35.751022   0.000000
   12       37.535016   0.000000
   13       37.535064   0.000000
   14       40.608660   0.000000
   15       49.530320   0.000000
   16       51.519922   0.000000
 
  0.1565657E+00  0.0000000E+00  0.1565657E+00  0.1666667E-02
    1      -10.805145   1.000000
    2        6.797479   1.000000
    3        6.797551   1.000000
    4        7.021753   1.000000
    5       13.789113   0.000000
    6       17.333536   0.000000
    7       17.333687   0.000000
    8       20.853113   0.000000
    9       28.164191   0.000000
   10       28.781285   0.000000
   11       35.820708   0.000000
   12       37.659291   0.000000
   13       37.659339   0.000000
   14       40.729977   0.000000
   15       49.929062   0.000000
   16       51.363957   0.000000
 
  0.1616162E+00  0.0000000E+00  0.1616162E+00  0.1666667E-02
    1      -10.748750   1.000000
    2        6.700954   1.000000
    3        6.701025   1.000000
    4        6.905463   1.000000
    5       13.757739   0.000000
    6       17.475541   0.000000
    7       17.475694   0.000000
    8       20.788133   0.000000
    9       28.070381   0.000000
   10       28.858650   0.000000
   11       35.892677   0.000000
   12       37.787200   0.000000
   13       37.787250   0.000000
   14       40.852587   0.000000
   15       50.332108   0.000000
   16       51.204768   0.000000
 
  0.1666667E+00  0.0000000E+00  0.1666667E+00  0.1666667E-02
    1      -10.690601   1.000000
    2        6.604861   1.000000
    3        6.604931   1.000000
    4        6.786929   1.000000
    5       13.726264   0.000000
    6       17.618410   0.000000
    7       17.618565   0.000000
    8       20.715555   0.000000
    9       27.988186   0.000000
   10       28.936850   0.000000
   11       35.966930   0.000000
   12       37.918680   0.000000
   13       37.918731   0.000000
   14       40.976749   0.000000
   15       50.739100   0.000000
   16       51.042774   0.000000
 
  0.1717172E+00  0.0000000E+00  0.1717172E+00  0.1666667E-02
    1      -10.630701   1.000000
    2        6.509280   1.000000
    3        6.509349   1.000000
    4        6.666226   1.000000
    5       13.694744   0.000000
    6       17.762047   0.000000
    7       17.762204   0.000000
    8       20.635478   0.000000
    9       27.917444   0.000000
   10       29.015762   0.000000
   11       36.043467   0.000000
   12       38.053656   0.000000
   13       38.053709   0.000000
   14       41.102697   0.000000
   15       50.878649   0.000000
   16       50.879131   0.000000
 
  0.1767677E+00  0.0000000E+00  0.1767677E+00  0.1666667E-02
    1      -10.569054   1.000000
    2        6.414287   1.000000
    3        6.414356   1.000000
    4        6.543422   1.000000
    5       13.663235   0.000000
    6       17.906362   0.000000
    7       17.906521   0.000000
    8       20.548089   0.000000
    9       27.857904   0.000000
   10       29.095259   0.000000
   11       36.122287   0.000000
   12       38.192050   0.000000
   13       38.192104   0.000000
   14       41.230643   0.000000
   15       50.712346   0.000000
   16       50.712815   0.000000
 
  0.1818182E+00  0.0000000E+00  0.1818182E+00  0.1666667E-02
    1      -10.505663   1.000000
    2        6.319952   1.000000
    3        6.320020   1.000000
    4        6.418585   1.000000
    5       13.631794   0.000000
    6       18.051270   0.000000
    7       18.051431   0.000000
    8       20.453658   0.000000
    9       27.809233   0.000000
   10       29.175217   0.000000
   11       36.203390   0.000000
   12       38.333770   0.000000
   13       38.333826   0.000000
   14       41.360776   0.000000
   15       50.544124   0.000000
   16       50.544580   0.000000
 
  0.1868687E+00  0.0000000E+00  0.1868687E+00  0.1666667E-02
    1      -10.440534   1.000000
    2        6.226340   1.000000
    3        6.226408   1.000000
    4        6.291781   1.000000
    5       13.600473   0.000000
    6       18.196689   0.000000
    7       18.196852   0.000000
    8       20.352526   0.000000
    9       27.771027   0.000000
   10       29.255510   0.000000
   11       36.286777   0.000000
   12       38.478718   0.000000
   13       38.478776   0.000000
   14       41.493269   0.000000
   15       50.374251   0.000000
   16       50.374694   0.000000
 
  0.1919192E+00  0.0000000E+00  0.1919192E+00  0.1666667E-02
    1      -10.373671   1.000000
    2        6.133511   1.000000
    3        6.133579   1.000000
    4        6.163071   1.000000
    5       13.569326   0.000000
    6       18.342542   0.000000
    7       18.342707   0.000000
    8       20.245094   0.000000
    9       27.742823   0.000000
   10       29.336010   0.000000
   11       36.372447   0.000000
   12       38.626781   0.000000
   13       38.626840   0.000000
   14       41.628279   0.000000
   15       50.203006   0.000000
   16       50.203436   0.000000
 
  0.1969697E+00  0.0000000E+00  0.1969697E+00  0.1666667E-02
    1      -10.305077   1.000000
    2        6.032518   1.000000
    3        6.041523   1.000000
    4        6.041590   1.000000
    5       13.538406   0.000000
    6       18.488755   0.000000
    7       18.488921   0.000000
    8       20.131811   0.000000
    9       27.724109   0.000000
   10       29.416592   0.000000
   11       36.460399   0.000000
   12       38.777832   0.000000
   13       38.777894   0.000000
   14       41.765948   0.000000
   15       50.030684   0.000000
   16       50.031101   0.000000
 
  0.2020202E+00  0.0000000E+00  0.2020202E+00  0.1666667E-02
    1      -10.234758   1.000000
    2        5.900181   1.000000
    3        5.950428   1.000000
    4        5.950495   1.000000
    5       13.507763   0.000000
    6       18.635255   0.000000
    7       18.635424   0.000000
    8       20.013160   0.000000
    9       27.714342   0.000000
   10       29.497128   0.000000
   11       36.550635   0.000000
   12       38.931731   0.000000
   13       38.931795   0.000000
   14       41.906404   0.000000
   15       49.857591   0.000000
   16       49.857995   0.000000
 
  0.2070707E+00  0.0000000E+00  0.2070707E+00  0.1666667E-02
    1      -10.162718   1.000000
    2        5.766116   1.000000
    3        5.860275   1.000000
    4        5.860341   1.000000
    5       13.477447   0.000000
    6       18.781975   0.000000
    7       18.782146   0.000000
    8       19.889643   0.000000
    9       27.712957   0.000000
   10       29.577493   0.000000
   11       36.643153   0.000000
   12       39.088318   0.000000
   13       39.088384   0.000000
   14       42.049766   0.000000
   15       49.684053   0.000000
   16       49.684443   0.000000
 
  0.2121212E+00  0.0000000E+00  0.2121212E+00  0.1666667E-02
    1      -10.088962   1.000000
    2        5.630379   1.000000
    3        5.771111   1.000000
    4        5.771176   1.000000
    5       13.447508   0.000000
    6       18.928848   0.000000
    7       18.929020   0.000000
    8       19.761774   0.000000
    9       27.719381   0.000000
   10       29.657561   0.000000
   11       36.737955   0.000000
   12       39.247410   0.000000
   13       39.247478   0.000000
   14       42.196141   0.000000
   15       49.510412   0.000000
   16       49.510790   0.000000
 
  0.2171717E+00  0.0000000E+00  0.2171717E+00  0.1666667E-02
    1      -10.013496   1.000000
    2        5.493023   1.000000
    3        5.682978   1.000000
    4        5.683043   1.000000
    5       13.417994   0.000000
    6       19.075807   0.000000
    7       19.075982   0.000000
    8       19.630066   0.000000
    9       27.733042   0.000000
   10       29.737206   0.000000
   11       36.835038   0.000000
   12       39.408800   0.000000
   13       39.408872   0.000000
   14       42.345625   0.000000
   15       49.337038   0.000000
   16       49.337402   0.000000
 
  0.2222222E+00  0.0000000E+00  0.2222222E+00  0.1666667E-02
    1       -9.936328   1.000000
    2        5.354100   1.000000
    3        5.595917   1.000000
    4        5.595982   1.000000
    5       13.388951   0.000000
    6       19.222790   0.000000
    7       19.222967   0.000000
    8       19.495023   0.000000
    9       27.753376   0.000000
   10       29.816306   0.000000
   11       36.934404   0.000000
   12       39.572254   0.000000
   13       39.572328   0.000000
   14       42.498309   0.000000
   15       49.164324   0.000000
   16       49.164675   0.000000
 
  0.2272727E+00  0.0000000E+00  0.2272727E+00  0.1666667E-02
    1       -9.857460   1.000000
    2        5.213663   1.000000
    3        5.509967   1.000000
    4        5.510031   1.000000
    5       13.360425   0.000000
    6       19.357135   0.000000
    7       19.369733   0.000000
    8       19.369912   0.000000
    9       27.779837   0.000000
   10       29.894736   0.000000
   11       37.036052   0.000000
   12       39.737500   0.000000
   13       39.737577   0.000000
   14       42.654271   0.000000
   15       48.992698   0.000000
   16       48.993036   0.000000
 
  0.2323232E+00  0.0000000E+00  0.2323232E+00  0.1666667E-02
    1       -9.776899   1.000000
    2        5.071762   1.000000
    3        5.425163   1.000000
    4        5.425227   1.000000
    5       13.332461   0.000000
    6       19.216872   0.000000
    7       19.516575   0.000000
    8       19.516756   0.000000
    9       27.811899   0.000000
   10       29.972375   0.000000
   11       37.139982   0.000000
   12       39.904227   0.000000
   13       39.904308   0.000000
   14       42.813586   0.000000
   15       48.822625   0.000000
   16       48.822949   0.000000
 
  0.2373737E+00  0.0000000E+00  0.2373737E+00  0.1666667E-02
    1       -9.694650   1.000000
    2        4.928444   1.000000
    3        5.341540   1.000000
    4        5.341603   1.000000
    5       13.305102   0.000000
    6       19.074678   0.000000
    7       19.663255   0.000000
    8       19.663439   0.000000
    9       27.849062   0.000000
   10       30.049102   0.000000
   11       37.246194   0.000000
   12       40.072076   0.000000
   13       40.072162   0.000000
   14       42.976320   0.000000
   15       48.654614   0.000000
   16       48.654924   0.000000
 
  0.2424242E+00  0.0000000E+00  0.2424242E+00  0.1666667E-02
    1       -9.610719   1.000000
    2        4.783760   1.000000
    3        5.259128   1.000000
    4        5.259191   1.000000
    5       13.278393   0.000000
    6       18.930974   0.000000
    7       19.809713   0.000000
    8       19.809899   0.000000
    9       27.890852   0.000000
   10       30.124801   0.000000
   11       37.354688   0.000000
   12       40.240633   0.000000
   13       40.240722   0.000000
   14       43.142533   0.000000
   15       48.489231   0.000000
   16       48.489528   0.000000
 
  0.2474747E+00  0.0000000E+00  0.2474747E+00  0.1666667E-02
    1       -9.525115   1.000000
    2        4.637726   1.000000
    3        5.177741   1.000000
    4        5.177805   1.000000
    5       13.252348   0.000000
    6       18.786137   0.000000
    7       19.953912   0.000000
    8       19.954106   0.000000
    9       27.936102   0.000000
   10       30.199312   0.000000
   11       37.465238   0.000000
   12       40.407874   0.000000
   13       40.407972   0.000000
   14       43.312229   0.000000
   15       48.326665   0.000000
   16       48.326948   0.000000
 
  0.2525253E+00  0.0000000E+00  0.2525253E+00  0.1666667E-02
    1       -9.437840   1.000000
    2        4.490483   1.000000
    3        5.097845   1.000000
    4        5.097908   1.000000
    5       13.227057   0.000000