Diamond                                 
           1
     1.870737    1.870737    0.000000
     0.000000    1.870737    1.870737
     1.870737   -0.000000    1.870737
   C 
   2
Direct configuration=     1
   0.00000000  0.00000000  0.00000000
   0.25000000  0.25000000  0.25000000
Diamond                                 
           1
     1.823293    1.823293    0.000000
     0.000000    1.823293    1.823293
     1.823293   -0.000000    1.823293
   C 
   2
Direct configuration=     2
   0.00000000  0.00000000  0.00000000
   0.25000000  0.25000000  0.25000000
Diamond                                 
           1
     1.822685    1.822685    0.000000
     0.000000    1.822685    1.822685
     1.822685   -0.000000    1.822685
   C 
   2
Direct configuration=     3
   0.00000000  0.00000000  0.00000000
   0.25000000  0.25000000  0.25000000
Diamond                                 
           1
     1.822651    1.822651    0.000000
     0.000000    1.822651    1.822651
     1.822651   -0.000000    1.822651
   C 
   2
Direct configuration=     4
   0.00000000  0.00000000  0.00000000
   0.25000000  0.25000000  0.25000000
Diamond                                 
           1
     1.822650    1.822650    0.000000
     0.000000    1.822650    1.822650
     1.822650   -0.000000    1.822650
   C 
   2
Direct configuration=     5
   0.00000000  0.00000000  0.00000000
   0.25000000  0.25000000  0.25000000
Diamond                                 
           1
     1.822650    1.822650    0.000000
     0.000000    1.822650    1.822650
     1.822650   -0.000000    1.822650
   C 
   2
Direct configuration=     6
   0.00000000  0.00000000  0.00000000
   0.25000000  0.25000000  0.25000000
