Real silicon (diamond-like)             
   5.50000000000000     
     0.000000    0.495393    0.495393
     0.495393    0.000000    0.495393
     0.495393    0.495393    0.000000
   Si
     2
Direct
  0.875000  0.875000  0.875000
  0.125000  0.125000  0.125000
 
   48   48   48
  22.955      22.912      22.781      22.552      22.204      21.681      20.934      19.966      18.840      17.687    
  16.679      15.987      15.740      15.987      16.679      17.687      18.840      19.966      20.934      21.681    
  22.204      22.552      22.781      22.912      22.955      22.912      22.781      22.552      22.204      21.681    
  20.934      19.966      18.840      17.687      16.679      15.987      15.740      15.987      16.679      17.687    
  18.840      19.966      20.934      21.681      22.204      22.552      22.781      22.912      22.912      23.007    
  22.994      22.841      22.464      21.789      20.789      19.515      18.099      16.740      15.663      15.067    
  15.067      15.663      16.740      18.099      19.515      20.789      21.789      22.464      22.841      22.994    
  23.007      22.912      22.727      22.461      22.119      21.699      21.192      20.569      19.804      18.916    
  17.973      17.088      16.397      16.016      16.016      16.397      17.088      17.973      18.916      19.804    
  20.569      21.192      21.699      22.119      22.461      22.727      22.781      22.994      23.059      22.870    
  22.321      21.357      19.997      18.361      16.657      15.154      14.119      13.750      14.119      15.154    
  16.657      18.361      19.997      21.357      22.321      22.870      23.059      22.994      22.781      22.461    
  22.058      21.590      21.069      20.497      19.874      19.195      18.454      17.674      16.918      16.277    
  15.845      15.691      15.845      16.277      16.918      17.674      18.454      19.195      19.874      20.497    
  21.069      21.590      22.058      22.461      22.552      22.841      22.870      22.503      21.647      20.287    
  18.511      16.518      14.599      13.076      12.233      12.233      13.076      14.599      16.518      18.511    
  20.287      21.647      22.503      22.870      22.841      22.552      22.119      21.590      20.996      20.361    
  19.700      19.023      18.333      17.637      16.945      16.282      15.698      15.258      15.020      15.020    
  15.258      15.698      16.282      16.945      17.637      18.333      19.023      19.700      20.361      20.996    
  21.590      22.119      22.204      22.464      22.321      21.647      20.384      18.578      16.400      14.135    
  12.140      10.768      10.279      10.768      12.140      14.135      16.400      18.578      20.384      21.647    
  22.321      22.464      22.204      21.699      21.069      20.361      19.612      18.851      18.099      17.364    
  16.654      15.976      15.348      14.796      14.356      14.070      13.971      14.070      14.356      14.796    
  15.348      15.976      16.654      17.364      18.099      18.851      19.612      20.361      21.069      21.699    
  21.681      21.789      21.357      20.287      18.578      16.355      13.874      11.493      9.6113      8.5707    
  8.5707      9.6113      11.493      13.874      16.355      18.578      20.287      21.357      21.789      21.681    
  21.192      20.497      19.700      18.851      17.992      17.154      16.355      15.607      14.915      14.286    
  13.734      13.283      12.960      12.791      12.791      12.960      13.283      13.734      14.286      14.915    
  15.607      16.355      17.154      17.992      18.851      19.700      20.497      21.192      20.934      20.789    
  19.997      18.511      16.400      13.874      11.262      8.9737      7.4047      6.8460      7.4047      8.9737    
  11.262      13.874      16.400      18.511      19.997      20.789      20.934      20.569      19.874      19.023    
  18.099      17.154      16.230      15.358      14.556      13.830      13.183      12.621      12.155      11.801    
  11.578      11.502      11.578      11.801      12.155      12.621      13.183      13.830      14.556      15.358    
  16.230      17.154      18.099      19.023      19.874      20.569      19.966      19.515      18.361      16.518    
  14.135      11.493      8.9737      6.9906      5.8971      5.8971      6.9906      8.9737      11.493      14.135    
  16.518      18.361      19.515      19.966      19.804      19.195      18.333      17.364      16.355      15.358    
  14.415      13.550      12.777      12.099      11.515      11.029      10.648      10.383      10.247      10.247    
  10.383      10.648      11.029      11.515      12.099      12.777      13.550      14.415      15.358      16.355    
  17.364      18.333      19.195      19.804      18.840      18.099      16.657      14.599      12.140      9.6113    
  7.4047      5.8971      5.3613      5.8971      7.4047      9.6113      12.140      14.599      16.657      18.099    
  18.840      18.916      18.454      17.637      16.654      15.607      14.556      13.550      12.625      11.800    
  11.081      10.467      9.9551      9.5467      9.2462      9.0613      8.9987      9.0613      9.2462      9.5467    
  9.9551      10.467      11.081      11.800      12.625      13.550      14.556      15.607      16.654      17.637    
  18.454      18.916      17.687      16.740      15.154      13.076      10.768      8.5707      6.8460      5.8971    
  5.8971      6.8460      8.5707      10.768      13.076      15.154      16.740      17.687      17.973      17.674    
  16.945      15.976      14.915      13.830      12.777      11.800      10.924      10.161      9.5113      8.9702    
  8.5334      8.2004      7.9743      7.8596      7.8596      7.9743      8.2004      8.5334      8.9702      9.5113    
  10.161      10.924      11.800      12.777      13.830      14.915      15.976      16.945      17.674      17.973    
  16.679      15.663      14.119      12.233      10.279      8.5707      7.4047      6.9906      7.4047      8.5707    
  10.279      12.233      14.119      15.663      16.679      17.088      16.918      16.282      15.348      14.286    
  13.183      12.099      11.081      10.161      9.3566      8.6704      8.0978      7.6321      7.2688      7.0067    
  6.8479      6.7945      6.8479      7.0067      7.2688      7.6321      8.0978      8.6704      9.3566      10.161    
  11.081      12.099      13.183      14.286      15.348      16.282      16.918      17.088      15.987      15.067    
  13.750      12.233      10.768      9.6113      8.9737      8.9737      9.6113      10.768      12.233      13.750    
  15.067      15.987      16.397      16.277      15.698      14.796      13.734      12.621      11.515      10.467    
  9.5113      8.6704      7.9500      7.3467      6.8529      6.4613      6.1677      5.9710      5.8722      5.8722    
  5.9710      6.1677      6.4613      6.8529      7.3467      7.9500      8.6704      9.5113      10.467      11.515    
  12.621      13.734      14.796      15.698      16.277      16.397      15.740      15.067      14.119      13.076    
  12.140      11.493      11.262      11.493      12.140      13.076      14.119      15.067      15.740      16.016    
  15.845      15.258      14.356      13.283      12.155      11.029      9.9551      8.9702      8.0978      7.3467    
  6.7149      6.1946      5.7770      5.4555      5.2265      5.0890      5.0430      5.0890      5.2265      5.4555    
  5.7770      6.1946      6.7149      7.3467      8.0978      8.9702      9.9551      11.029      12.155      13.283    
  14.356      15.258      15.845      16.016      15.987      15.663      15.154      14.599      14.135      13.874    
  13.874      14.135      14.599      15.154      15.663      15.987      16.016      15.691      15.020      14.070    
  12.960      11.801      10.648      9.5467      8.5334      7.6321      6.8529      6.1946      5.6496      5.2082    
  4.8619      4.6050      4.4345      4.3494      4.3494      4.4345      4.6050      4.8619      5.2082      5.6496    
  6.1946      6.8529      7.6321      8.5334      9.5467      10.648      11.801      12.960      14.070      15.020    
  15.691      16.016      16.679      16.740      16.657      16.518      16.400      16.355      16.400      16.518    
  16.657      16.740      16.679      16.397      15.845      15.020      13.971      12.791      11.578      10.383    
  9.2462      8.2004      7.2688      6.4613      5.7770      5.2082      4.7443      4.3753      4.0939      3.8952    
  3.7767      3.7373      3.7767      3.8952      4.0939      4.3753      4.7443      5.2082      5.7770      6.4613    
  7.2688      8.2004      9.2462      10.383      11.578      12.791      13.971      15.020      15.845      16.397    
  17.687      18.099      18.361      18.511      18.578      18.578      18.511      18.361      18.099      17.687    
  17.088      16.277      15.258      14.070      12.791      11.502      10.247      9.0613      7.9743      7.0067    
  6.1677      5.4555      4.8619      4.3753      3.9846      3.6807      3.4572      3.3100      3.2370      3.2370    
  3.3100      3.4572      3.6807      3.9846      4.3753      4.8619      5.4555      6.1677      7.0067      7.9743    
  9.0613      10.247      11.502      12.791      14.070      15.258      16.277      17.088      18.840      19.515    
  19.997      20.287      20.384      20.287      19.997      19.515      18.840      17.973      16.918      15.698    
  14.356      12.960      11.578      10.247      8.9987      7.8596      6.8479      5.9710      5.2265      4.6050    
  4.0939      3.6807      3.3548      3.1085      2.9361      2.8341      2.8003      2.8341      2.9361      3.1085    
  3.3548      3.6807      4.0939      4.6050      5.2265      5.9710      6.8479      7.8596      8.9987      10.247    
  11.578      12.960      14.356      15.698      16.918      17.973      19.966      20.789      21.357      21.647    
  21.647      21.357      20.789      19.966      18.916      17.674      16.282      14.796      13.283      11.801    
  10.383      9.0613      7.8596      6.7945      5.8722      5.0890      4.4345      3.8952      3.4572      3.1085    
  2.8398      2.6442      2.5164      2.4534      2.4534      2.5164      2.6442      2.8398      3.1085      3.4572    
  3.8952      4.4345      5.0890      5.8722      6.7945      7.8596      9.0613      10.383      11.801      13.283    
  14.796      16.282      17.674      18.916      20.934      21.789      22.321      22.503      22.321      21.789    
  20.934      19.804      18.454      16.945      15.348      13.734      12.155      10.648      9.2462      7.9743    
  6.8479      5.8722      5.0430      4.3494      3.7767      3.3100      2.9361      2.6442      2.4256      2.2742    
  2.1853      2.1559      2.1853      2.2742      2.4256      2.6442      2.9361      3.3100      3.7767      4.3494    
  5.0430      5.8722      6.8479      7.9743      9.2462      10.648      12.155      13.734      15.348      16.945    
  18.454      19.804      21.681      22.464      22.870      22.870      22.464      21.681      20.569      19.195    
  17.637      15.976      14.286      12.621      11.029      9.5467      8.2004      7.0067      5.9710      5.0890    
  4.3494      3.7373      3.2370      2.8341      2.5164      2.2742      2.0997      1.9868      1.9314      1.9314    
  1.9868      2.0997      2.2742      2.5164      2.8341      3.2370      3.7373      4.3494      5.0890      5.9710    
  7.0067      8.2004      9.5467      11.029      12.621      14.286      15.976      17.637      19.195      20.569    
  22.204      22.841      23.059      22.841      22.204      21.192      19.874      18.333      16.654      14.915    
  13.183      11.515      9.9551      8.5334      7.2688      6.1677      5.2265      4.4345      3.7767      3.2370    
  2.8003      2.4534      2.1853      1.9868      1.8506      1.7713      1.7453      1.7713      1.8506      1.9868    
  2.1853      2.4534      2.8003      3.2370      3.7767      4.4345      5.2265      6.1677      7.2688      8.5334    
  9.9551      11.515      13.183      14.915      16.654      18.333      19.874      21.192      22.552      22.994    
  22.994      22.552      21.699      20.497      19.023      17.364      15.607      13.830      12.099      10.467    
  8.9702      7.6321      6.4613      5.4555      4.6050      3.8952      3.3100      2.8341      2.4534      2.1559    
  1.9314      1.7713      1.6687      1.6186      1.6186      1.6687      1.7713      1.9314      2.1559      2.4534    
  2.8341      3.3100      3.8952      4.6050      5.4555      6.4613      7.6321      8.9702      10.467      12.099    
  13.830      15.607      17.364      19.023      20.497      21.699      22.781      23.007      22.781      22.119    
  21.069      19.700      18.099      16.355      14.556      12.777      11.081      9.5113      8.0978      6.8529    
  5.7770      4.8619      4.0939      3.4572      2.9361      2.5164      2.1853      1.9314      1.7453      1.6186    
  1.5453      1.5213      1.5453      1.6186      1.7453      1.9314      2.1853      2.5164      2.9361      3.4572    
  4.0939      4.8619      5.7770      6.8529      8.0978      9.5113      11.081      12.777      14.556      16.355    
  18.099      19.700      21.069      22.119      22.912      22.912      22.461      21.590      20.361      18.851    
  17.154      15.358      13.550      11.800      10.161      8.6704      7.3467      6.1946      5.2082      4.3753    
  3.6807      3.1085      2.6442      2.2742      1.9868      1.7713      1.6186      1.5213      1.4741      1.4741    
  1.5213      1.6186      1.7713      1.9868      2.2742      2.6442      3.1085      3.6807      4.3753      5.2082    
  6.1946      7.3467      8.6704      10.161      11.800      13.550      15.358      17.154      18.851      20.361    
  21.590      22.461      22.955      22.727      22.058      20.996      19.612      17.992      16.230      14.415    
  12.625      10.924      9.3566      7.9500      6.7149      5.6496      4.7443      3.9846      3.3548      2.8398    
  2.4256      2.0997      1.8506      1.6687      1.5453      1.4741      1.4508      1.4741      1.5453      1.6687    
  1.8506      2.0997      2.4256      2.8398      3.3548      3.9846      4.7443      5.6496      6.7149      7.9500    
  9.3566      10.924      12.625      14.415      16.230      17.992      19.612      20.996      22.058      22.727    
  22.912      22.461      21.590      20.361      18.851      17.154      15.358      13.550      11.800      10.161    
  8.6704      7.3467      6.1946      5.2082      4.3753      3.6807      3.1085      2.6442      2.2742      1.9868    
  1.7713      1.6186      1.5213      1.4741      1.4741      1.5213      1.6186      1.7713      1.9868      2.2742    
  2.6442      3.1085      3.6807      4.3753      5.2082      6.1946      7.3467      8.6704      10.161      11.800    
  13.550      15.358      17.154      18.851      20.361      21.590      22.461      22.912      22.781      22.119    
  21.069      19.700      18.099      16.355      14.556      12.777      11.081      9.5113      8.0978      6.8529    
  5.7770      4.8619      4.0939      3.4572      2.9361      2.5164      2.1853      1.9314      1.7453      1.6186    
  1.5453      1.5213      1.5453      1.6186      1.7453      1.9314      2.1853      2.5164      2.9361      3.4572    
  4.0939      4.8619      5.7770      6.8529      8.0978      9.5113      11.081      12.777      14.556      16.355    
  18.099      19.700      21.069      22.119      22.781      23.007      22.552      21.699      20.497      19.023    
  17.364      15.607      13.830      12.099      10.467      8.9702      7.6321      6.4613      5.4555      4.6050    
  3.8952      3.3100      2.8341      2.4534      2.1559      1.9314      1.7713      1.6687      1.6186      1.6186    
  1.6687      1.7713      1.9314      2.1559      2.4534      2.8341      3.3100      3.8952      4.6050      5.4555    
  6.4613      7.6321      8.9702      10.467      12.099      13.830      15.607      17.364      19.023      20.497    
  21.699      22.552      22.994      22.994      22.204      21.192      19.874      18.333      16.654      14.915    
  13.183      11.515      9.9551      8.5334      7.2688      6.1677      5.2265      4.4345      3.7767      3.2370    
  2.8003      2.4534      2.1853      1.9868      1.8506      1.7713      1.7453      1.7713      1.8506      1.9868    
  2.1853      2.4534      2.8003      3.2370      3.7767      4.4345      5.2265      6.1677      7.2688      8.5334    
  9.9551      11.515      13.183      14.915      16.654      18.333      19.874      21.192      22.204      22.841    
  23.059      22.841      21.681      20.569      19.195      17.637      15.976      14.286      12.621      11.029    
  9.5467      8.2004      7.0067      5.9710      5.0890      4.3494      3.7373      3.2370      2.8341      2.5164    
  2.2742      2.0997      1.9868      1.9314      1.9314      1.9868      2.0997      2.2742      2.5164      2.8341    
  3.2370      3.7373      4.3494      5.0890      5.9710      7.0067      8.2004      9.5467      11.029      12.621    
  14.286      15.976      17.637      19.195      20.569      21.681      22.464      22.870      22.870      22.464    
  20.934      19.804      18.454      16.945      15.348      13.734      12.155      10.648      9.2462      7.9743    
  6.8479      5.8722      5.0430      4.3494      3.7767      3.3100      2.9361      2.6442      2.4256      2.2742    
  2.1853      2.1559      2.1853      2.2742      2.4256      2.6442      2.9361      3.3100      3.7767      4.3494    
  5.0430      5.8722      6.8479      7.9743      9.2462      10.648      12.155      13.734      15.348      16.945    
  18.454      19.804      20.934      21.789      22.321      22.503      22.321      21.789      19.966      18.916    
  17.674      16.282      14.796      13.283      11.801      10.383      9.0613      7.8596      6.7945      5.8722    
  5.0890      4.4345      3.8952      3.4572      3.1085      2.8398      2.6442      2.5164      2.4534      2.4534    
  2.5164      2.6442      2.8398      3.1085      3.4572      3.8952      4.4345      5.0890      5.8722      6.7945    
  7.8596      9.0613      10.383      11.801      13.283      14.796      16.282      17.674      18.916      19.966    
  20.789      21.357      21.647      21.647      21.357      20.789      18.840      17.973      16.918      15.698    
  14.356      12.960      11.578      10.247      8.9987      7.8596      6.8479      5.9710      5.2265      4.6050    
  4.0939      3.6807      3.3548      3.1085      2.9361      2.8341      2.8003      2.8341      2.9361      3.1085    
  3.3548      3.6807      4.0939      4.6050      5.2265      5.9710      6.8479      7.8596      8.9987      10.247    
  11.578      12.960      14.356      15.698      16.918      17.973      18.840      19.515      19.997      20.287    
  20.384      20.287      19.997      19.515      17.687      17.088      16.277      15.258      14.070      12.791    
  11.502      10.247      9.0613      7.9743      7.0067      6.1677      5.4555      4.8619      4.3753      3.9846    
  3.6807      3.4572      3.3100      3.2370      3.2370      3.3100      3.4572      3.6807      3.9846      4.3753    
  4.8619      5.4555      6.1677      7.0067      7.9743      9.0613      10.247      11.502      12.791      14.070    
  15.258      16.277      17.088      17.687      18.099      18.361      18.511      18.578      18.578      18.511    
  18.361      18.099      16.679      16.397      15.845      15.020      13.971      12.791      11.578      10.383    
  9.2462      8.2004      7.2688      6.4613      5.7770      5.2082      4.7443      4.3753      4.0939      3.8952    
  3.7767      3.7373      3.7767      3.8952      4.0939      4.3753      4.7443      5.2082      5.7770      6.4613    
  7.2688      8.2004      9.2462      10.383      11.578      12.791      13.971      15.020      15.845      16.397    
  16.679      16.740      16.657      16.518      16.400      16.355      16.400      16.518      16.657      16.740    
  15.987      16.016      15.691      15.020      14.070      12.960      11.801      10.648      9.5467      8.5334    
  7.6321      6.8529      6.1946      5.6496      5.2082      4.8619      4.6050      4.4345      4.3494      4.3494    
  4.4345      4.6050      4.8619      5.2082      5.6496      6.1946      6.8529      7.6321      8.5334      9.5467    
  10.648      11.801      12.960      14.070      15.020      15.691      16.016      15.987      15.663      15.154    
  14.599      14.135      13.874      13.874      14.135      14.599      15.154      15.663      15.740      16.016    
  15.845      15.258      14.356      13.283      12.155      11.029      9.9551      8.9702      8.0978      7.3467    
  6.7149      6.1946      5.7770      5.4555      5.2265      5.0890      5.0430      5.0890      5.2265      5.4555    
  5.7770      6.1946      6.7149      7.3467      8.0978      8.9702      9.9551      11.029      12.155      13.283    
  14.356      15.258      15.845      16.016      15.740      15.067      14.119      13.076      12.140      11.493    
  11.262      11.493      12.140      13.076      14.119      15.067      15.987      16.397      16.277      15.698    
  14.796      13.734      12.621      11.515      10.467      9.5113      8.6704      7.9500      7.3467      6.8529    
  6.4613      6.1677      5.9710      5.8722      5.8722      5.9710      6.1677      6.4613      6.8529      7.3467    
  7.9500      8.6704      9.5113      10.467      11.515      12.621      13.734      14.796      15.698      16.277    
  16.397      15.987      15.067      13.750      12.233      10.768      9.6113      8.9737      8.9737      9.6113    
  10.768      12.233      13.750      15.067      16.679      17.088      16.918      16.282      15.348      14.286    
  13.183      12.099      11.081      10.161      9.3566      8.6704      8.0978      7.6321      7.2688      7.0067    
  6.8479      6.7945      6.8479      7.0067      7.2688      7.6321      8.0978      8.6704      9.3566      10.161    
  11.081      12.099      13.183      14.286      15.348      16.282      16.918      17.088      16.679      15.663    
  14.119      12.233      10.279      8.5707      7.4047      6.9906      7.4047      8.5707      10.279      12.233    
  14.119      15.663      17.687      17.973      17.674      16.945      15.976      14.915      13.830      12.777    
  11.800      10.924      10.161      9.5113      8.9702      8.5334      8.2004      7.9743      7.8596      7.8596    
  7.9743      8.2004      8.5334      8.9702      9.5113      10.161      10.924      11.800      12.777      13.830    
  14.915      15.976      16.945      17.674      17.973      17.687      16.740      15.154      13.076      10.768    
  8.5707      6.8460      5.8971      5.8971      6.8460      8.5707      10.768      13.076      15.154      16.740    
  18.840      18.916      18.454      17.637      16.654      15.607      14.556      13.550      12.625      11.800    
  11.081      10.467      9.9551      9.5467      9.2462      9.0613      8.9987      9.0613      9.2462      9.5467    
  9.9551      10.467      11.081      11.800      12.625      13.550      14.556      15.607      16.654      17.637    
  18.454      18.916      18.840      18.099      16.657      14.599      12.140      9.6113      7.4047      5.8971    
  5.3613      5.8971      7.4047      9.6113      12.140      14.599      16.657      18.099      19.966      19.804    
  19.195      18.333      17.364      16.355      15.358      14.415      13.550      12.777      12.099      11.515    
  11.029      10.648      10.383      10.247      10.247      10.383      10.648      11.029      11.515      12.099    
  12.777      13.550      14.415      15.358      16.355      17.364      18.333      19.195      19.804      19.966    
  19.515      18.361      16.518      14.135      11.493      8.9737      6.9906      5.8971      5.8971      6.9906    
  8.9737      11.493      14.135      16.518      18.361      19.515      20.934      20.569      19.874      19.023    
  18.099      17.154      16.230      15.358      14.556      13.830      13.183      12.621      12.155      11.801    
  11.578      11.502      11.578      11.801      12.155      12.621      13.183      13.830      14.556      15.358    
  16.230      17.154      18.099      19.023      19.874      20.569      20.934      20.789      19.997      18.511    
  16.400      13.874      11.262      8.9737      7.4047      6.8460      7.4047      8.9737      11.262      13.874    
  16.400      18.511      19.997      20.789      21.681      21.192      20.497      19.700      18.851      17.992    
  17.154      16.355      15.607      14.915      14.286      13.734      13.283      12.960      12.791      12.791    
  12.960      13.283      13.734      14.286      14.915      15.607      16.355      17.154      17.992      18.851    
  19.700      20.497      21.192      21.681      21.789      21.357      20.287      18.578      16.355      13.874    
  11.493      9.6113      8.5707      8.5707      9.6113      11.493      13.874      16.355      18.578      20.287    
  21.357      21.789      22.204      21.699      21.069      20.361      19.612      18.851      18.099      17.364    
  16.654      15.976      15.348      14.796      14.356      14.070      13.971      14.070      14.356      14.796    
  15.348      15.976      16.654      17.364      18.099      18.851      19.612      20.361      21.069      21.699    
  22.204      22.464      22.321      21.647      20.384      18.578      16.400      14.135      12.140      10.768    
  10.279      10.768      12.140      14.135      16.400      18.578      20.384      21.647      22.321      22.464    
  22.552      22.119      21.590      20.996      20.361      19.700      19.023      18.333      17.637      16.945    
  16.282      15.698      15.258      15.020      15.020      15.258      15.698      16.282      16.945      17.637    
  18.333      19.023      19.700      20.361      20.996      21.590      22.119      22.552      22.841      22.870    
  22.503      21.647      20.287      18.511      16.518      14.599      13.076      12.233      12.233      13.076    
  14.599      16.518      18.511      20.287      21.647      22.503      22.870      22.841      22.781      22.461    
  22.058      21.590      21.069      20.497      19.874      19.195      18.454      17.674      16.918      16.277    
  15.845      15.691      15.845      16.277      16.918      17.674      18.454      19.195      19.874      20.497    
  21.069      21.590      22.058      22.461      22.781      22.994      23.059      22.870      22.321      21.357    
  19.997      18.361      16.657      15.154      14.119      13.750      14.119      15.154      16.657      18.361    
  19.997      21.357      22.321      22.870      23.059      22.994      22.912      22.727      22.461      22.119    
  21.699      21.192      20.569      19.804      18.916      17.973      17.088      16.397      16.016      16.016    
  16.397      17.088      17.973      18.916      19.804      20.569      21.192      21.699      22.119      22.461    
  22.727      22.912      23.007      22.994      22.841      22.464      21.789      20.789      19.515      18.099    
  16.740      15.663      15.067      15.067      15.663      16.740      18.099      19.515      20.789      21.789    
  22.464      22.841      22.994      23.007      22.912      23.007      22.994      22.841      22.464      21.789    
  20.789      19.515      18.099      16.740      15.663      15.067      15.067      15.663      16.740      18.099    
  19.515      20.789      21.789      22.464      22.841      22.994      23.007      22.912      22.727      22.461    
  22.119      21.699      21.192      20.569      19.804      18.916      17.973      17.088      16.397      16.016    
  16.016      16.397      17.088      17.973      18.916      19.804      20.569      21.192      21.699      22.119    
  22.461      22.727      23.007      23.221      23.282      23.083      22.515      21.522      20.126      18.446    
  16.699      15.158      14.097      13.719      14.097      15.158      16.699      18.446      20.126      21.522    
  22.515      23.083      23.282      23.221      23.007      22.685      22.278      21.805      21.276      20.696    
  20.064      19.374      18.618      17.822      17.050      16.394      15.951      15.795      15.951      16.394    
  17.050      17.822      18.618      19.374      20.064      20.696      21.276      21.805      22.278      22.685    
  22.994      23.282      23.294      22.890      21.976      20.537      18.664      16.567      14.548      12.947    
  12.060      12.060      12.947      14.548      16.567      18.664      20.537      21.976      22.890      23.294    
  23.282      22.994      22.556      22.019      21.413      20.763      20.086      19.390      18.680      17.963    
  17.248      16.560      15.953      15.494      15.246      15.246      15.494      15.953      16.560      17.248    
  17.963      18.680      19.390      20.086      20.763      21.413      22.019      22.556      22.841      23.083    