    2    2   20    1
  0.2079688E+02  0.3889087E-09  0.3889087E-09  0.3889087E-09  0.5000000E-15
  1.000000000000000E-004
  CAR 
 Real silicon (diamond-like)             
      8    120     16
 
  0.0000000E+00  0.0000000E+00  0.0000000E+00  0.2962963E-03
    1       -6.198562   1.000000
    2        5.616522   0.999991
    3        5.616522   0.999991
    4        5.616522   0.999991
    5        8.173611   0.000000
    6        8.173611   0.000000
    7        8.173611   0.000000
    8        8.751291   0.000000
    9       13.325905   0.000000
   10       13.325905   0.000000
   11       13.494790   0.000000
   12       16.799390   0.000000
   13       16.799390   0.000000
   14       16.799390   0.000000
   15       20.891517   0.000000
   16       28.471829   0.000000
 
  0.6666667E-01  0.0000000E+00  0.0000000E+00  0.2370370E-02
    1       -6.141307   1.000000
    2        5.023567   1.000000
    3        5.523485   1.000000
    4        5.523486   1.000000
    5        8.209044   0.000000
    6        8.310444   0.000000
    7        8.310444   0.000000
    8        9.212077   0.000000
    9       13.144413   0.000000
   10       13.144413   0.000000
   11       13.742967   0.000000
   12       16.581616   0.000000
   13       17.167775   0.000000
   14       17.167775   0.000000
   15       21.284433   0.000000
   16       27.817145   0.000000
 
  0.1333333E+00  0.0000000E+00  0.0000000E+00  0.2370370E-02
    1       -5.970648   1.000000
    2        3.872814   1.000000
    3        5.303133   1.000000
    4        5.303133   1.000000
    5        8.030421   0.000000
    6        8.633746   0.000000
    7        8.633746   0.000000
    8       10.297336   0.000000
    9       12.815904   0.000000
   10       12.815904   0.000000
   11       14.352233   0.000000
   12       16.212462   0.000000
   13       18.077597   0.000000
   14       18.077597   0.000000
   15       22.243837   0.000000
   16       26.245064   0.000000
 
  0.2000000E+00  0.0000000E+00  0.0000000E+00  0.2370370E-02
    1       -5.690531   1.000000
    2        2.634666   1.000000
    3        5.049007   1.000000
    4        5.049007   1.000000
    5        7.769509   0.000000
    6        8.961251   0.000000
    7        8.961251   0.000000
    8       11.495782   0.000000
    9       12.665436   0.000000
   10       12.665436   0.000000
   11       14.693185   0.000000
   12       16.474908   0.000000
   13       19.253266   0.000000
   14       19.253266   0.000000
   15       23.326138   0.000000
   16       24.478418   0.000000
 
  0.2666667E+00  0.0000000E+00  0.0000000E+00  0.2370370E-02
    1       -5.309826   1.000000
    2        1.438975   1.000000
    3        4.817494   1.000000
    4        4.817494   1.000000
    5        7.516455   0.000000
    6        9.129900   0.000000
    7        9.129900   0.000000
    8       12.641398   0.000000
    9       12.906259   0.000000
   10       12.906259   0.000000
   11       14.489000   0.000000
   12       17.673628   0.000000
   13       20.356390   0.000000
   14       20.356390   0.000000
   15       22.999569   0.000000
   16       22.999569   0.000000
 
  0.3333333E+00  0.0000000E+00  0.0000000E+00  0.2370370E-02
    1       -4.848426   1.000000
    2        0.347014   1.000000
    3        4.634074   1.000000
    4        4.634075   1.000000
    5        7.309590   0.000000
    6        9.120173   0.000000
    7        9.120174   0.000000
    8       13.400819   0.000000
    9       13.571488   0.000000
   10       13.571488   0.000000
   11       14.598416   0.000000
   12       19.045859   0.000000
   13       20.081483   0.000000
   14       20.081484   0.000000
   15       22.205665   0.000000
   16       23.126942   0.000000
 
  0.4000000E+00  0.0000000E+00  0.0000000E+00  0.2370370E-02
    1       -4.357344   1.000000
    2       -0.571748   1.000000
    3        4.509033   1.000000
    4        4.509034   1.000000
    5        7.165965   0.000000
    6        9.037353   0.000000
    7        9.037354   0.000000
    8       13.422192   0.000000
    9       14.553488   0.000000
   10       14.553488   0.000000
   11       15.530403   0.000000
   12       18.688027   0.000000
   13       18.688027   0.000000
   14       19.391346   0.000000
   15       22.389855   0.000000
   16       24.591213   0.000000
 
  0.4666667E+00  0.0000000E+00  0.0000000E+00  0.2370370E-02
    1       -3.979609   1.000000
    2       -1.165294   1.000000
    3        4.446023   1.000000
    4        4.446023   1.000000
    5        7.092829   0.000000
    6        8.974921   0.000000
    7        8.974921   0.000000
    8       13.332598   0.000000
    9       15.713295   0.000000
   10       15.713295   0.000000
   11       16.566879   0.000000
   12       17.269066   0.000000
   13       17.269066   0.000000
   14       18.578234   0.000000
   15       24.017557   0.000000
   16       26.153679   0.000000
 
  0.6666667E-01  0.6666667E-01  0.0000000E+00  0.1777778E-02
    1       -6.122156   1.000000
    2        5.132726   1.000000
    3        5.330484   1.000000
    4        5.330484   1.000000
    5        7.995056   0.000000
    6        8.553715   0.000000
    7        8.553715   0.000000
    8        9.212358   0.000000
    9       12.795349   0.000000
   10       13.410778   0.000000
   11       13.824979   0.000000
   12       16.932914   0.000000
   13       16.932914   0.000000
   14       17.165597   0.000000
   15       21.437687   0.000000
   16       27.483173   0.000000
 
  0.1333333E+00  0.6666667E-01  0.0000000E+00  0.7111111E-02
    1       -5.989099   1.000000
    2        4.209234   1.000000
    3        5.057692   1.000000
    4        5.223188   1.000000
    5        7.992434   0.000000
    6        8.617754   0.000000
    7        8.947946   0.000000
    8       10.005394   0.000000
    9       12.388679   0.000000
   10       13.346313   0.000000
   11       14.333713   0.000000
   12       16.616371   0.000000
   13       17.414917   0.000000
   14       18.028774   0.000000
   15       22.241550   0.000000
   16       26.137100   0.000000
 
  0.2000000E+00  0.6666667E-01  0.0000000E+00  0.7111111E-02
    1       -5.744983   1.000000
    2        3.023091   1.000000
    3        4.787263   1.000000
    4        5.007888   1.000000
    5        8.068824   0.000000
    6        8.615447   0.000000
    7        9.331498   0.000000
    8       10.884825   0.000000
    9       12.356995   0.000000
   10       13.232230   0.000000
   11       14.911737   0.000000
   12       16.468663   0.000000
   13       18.387744   0.000000
   14       19.235359   0.000000
   15       23.318383   0.000000
   16       24.366664   0.000000
 
  0.2666667E+00  0.6666667E-01  0.0000000E+00  0.7111111E-02
    1       -5.396609   1.000000
    2        1.828975   1.000000
    3        4.562709   1.000000
    4        4.737585   1.000000
    5        7.925444   0.000000
    6        8.803819   0.000000
    7        9.543832   0.000000
    8       11.370840   0.000000
    9       13.079709   0.000000
   10       13.403264   0.000000
   11       14.865952   0.000000
   12       17.312944   0.000000
   13       19.506831   0.000000
   14       20.488845   0.000000
   15       22.725042   0.000000
   16       23.172682   0.000000
 
  0.3333333E+00  0.6666667E-01  0.0000000E+00  0.7111111E-02
    1       -4.958880   1.000000
    2        0.709512   1.000000
    3        4.403533   1.000000
    4        4.478188   1.000000
    5        7.732481   0.000000
    6        8.898250   0.000000
    7        9.534228   0.000000
    8       11.936436   0.000000
    9       13.985419   0.000000
   10       14.018719   0.000000
   11       14.719499   0.000000
   12       18.622251   0.000000
   13       19.755779   0.000000
   14       20.823507   0.000000
   15       22.220296   0.000000
   16       22.612467   0.000000
 
  0.4000000E+00  0.6666667E-01  0.0000000E+00  0.7111111E-02
    1       -4.468301   1.000000
    2       -0.270384   1.000000
    3        4.260126   1.000000
    4        4.317093   1.000000
    5        7.577286   0.000000
    6        8.886690   0.000000
    7        9.399370   0.000000
    8       12.737400   0.000000
    9       14.162986   0.000000
   10       14.903507   0.000000
   11       15.571061   0.000000
   12       18.499038   0.000000
   13       18.937734   0.000000
   14       20.376534   0.000000
   15       22.218835   0.000000
   16       23.474109   0.000000
 
  0.4666667E+00  0.6666667E-01  0.0000000E+00  0.7111111E-02
    1       -4.026513   1.000000
    2       -0.995456   1.000000
    3        4.097972   1.000000
    4        4.304307   1.000000
    5        7.483293   0.000000
    6        8.875697   0.000000
    7        9.250218   0.000000
    8       13.381312   0.000000
    9       14.456058   0.000000
   10       15.985727   0.000000
   11       16.685533   0.000000
   12       17.101401   0.000000
   13       17.856667   0.000000
   14       19.567524   0.000000
   15       23.387419   0.000000
   16       25.156885   0.000000
 
 -0.4666667E+00  0.6666667E-01  0.0000000E+00  0.7111111E-02
    1       -3.875660   1.000000
    2       -1.217283   1.000000
    3        4.000275   1.000000
    4        4.362364   1.000000
    5        7.458431   0.000000
    6        8.924168   0.000000
    7        9.147066   0.000000
    8       13.520771   0.000000
    9       15.260392   0.000000
   10       15.503660   0.000000
   11       16.590821   0.000000
   12       17.515142   0.000000
   13       17.743933   0.000000
   14       18.743720   0.000000
   15       24.506131   0.000000
   16       25.418096   0.000000
 
 -0.4000000E+00  0.6666667E-01  0.0000000E+00  0.7111111E-02
    1       -4.157238   1.000000
    2       -0.793032   1.000000
    3        3.973203   1.000000
    4        4.485957   1.000000
    5        7.504597   0.000000
    6        9.042555   0.000000
    7        9.106130   0.000000
    8       13.491459   0.000000
    9       14.277796   0.000000
   10       14.938455   0.000000
   11       16.755256   0.000000
   12       17.237866   0.000000
   13       18.935318   0.000000
   14       19.540669   0.000000
   15       22.772747   0.000000
   16       24.529524   0.000000
 
 -0.3333333E+00  0.6666667E-01  0.0000000E+00  0.7111111E-02
    1       -4.634323   1.000000
    2        0.037320   1.000000
    3        4.021455   1.000000
    4        4.667430   1.000000
    5        7.619882   0.000000
    6        9.103049   0.000000
    7        9.200982   0.000000
    8       13.082152   0.000000
    9       13.234115   0.000000
   10       14.539543   0.000000
   11       15.555469   0.000000
   12       18.476925   0.000000
   13       19.770902   0.000000
   14       20.388923   0.000000
   15       22.049413   0.000000
   16       22.941060   0.000000
 
 -0.2666667E+00  0.6666667E-01  0.0000000E+00  0.7111111E-02
    1       -5.113753   1.000000
    2        1.071819   1.000000
    3        4.148007   1.000000
    4        4.895334   1.000000
    5        7.798051   0.000000
    6        9.062602   0.000000
    7        9.314057   0.000000
    8       12.326336   0.000000
    9       12.491403   0.000000
   10       14.395881   0.000000
   11       14.730043   0.000000
   12       18.127215   0.000000
   13       19.817425   0.000000
   14       21.197234   0.000000
   15       21.741220   0.000000
   16       23.168132   0.000000
 
 -0.2000000E+00  0.6666667E-01  0.0000000E+00  0.7111111E-02
    1       -5.524102   1.000000
    2        2.219462   1.000000
    3        4.353747   1.000000
    4        5.149623   1.000000
    5        8.024428   0.000000
    6        8.884569   0.000000
    7        9.233854   0.000000
    8       11.589573   0.000000
    9       12.170753   0.000000
   10       13.540067   0.000000
   11       14.973263   0.000000
   12       16.907638   0.000000
   13       19.007098   0.000000
   14       20.332213   0.000000
   15       22.776196   0.000000
   16       23.774956   0.000000
 
 -0.1333333E+00  0.6666667E-01  0.0000000E+00  0.7111111E-02
    1       -5.838703   1.000000
    2        3.406133   1.000000
    3        4.640168   1.000000
    4        5.390608   1.000000
    5        8.265108   0.000000
    6        8.582271   0.000000
    7        8.887944   0.000000
    8       10.775190   0.000000
    9       12.281850   0.000000
   10       13.159732   0.000000
   11       14.764068   0.000000
   12       16.436627   0.000000
   13       17.852601   0.000000
   14       19.088482   0.000000
   15       22.898033   0.000000
   16       24.501691   0.000000
 
 -0.6666667E-01  0.6666667E-01  0.0000000E+00  0.3555556E-02
    1       -6.046154   1.000000
    2        4.461033   1.000000
    3        5.042862   1.000000
    4        5.543955   1.000000
    5        8.331000   0.000000
    6        8.431479   0.000000
    7        8.439037   0.000000
    8        9.839654   0.000000
    9       12.676917   0.000000
   10       13.186605   0.000000
   11       14.122535   0.000000
   12       16.649083   0.000000
   13       17.078993   0.000000
   14       17.971355   0.000000
   15       21.873321   0.000000
   16       26.269767   0.000000
 
  0.1333333E+00  0.1333333E+00  0.0000000E+00  0.1777778E-02
    1       -5.893676   1.000000
    2        4.127354   1.000000
    3        4.753927   1.000000
    4        4.753928   1.000000
    5        7.573157   0.000000
    6        9.409467   0.000000
    7        9.409467   0.000000
    8        9.882891   0.000000
    9       12.053492   0.000000
   10       13.665265   0.000000
   11       14.696230   0.000000
   12       17.329390   0.000000
   13       17.329390   0.000000
   14       17.831590   0.000000
   15       22.902254   0.000000
   16       25.759991   0.000000
 
  0.2000000E+00  0.1333333E+00  0.0000000E+00  0.7111111E-02
    1       -5.686276   1.000000
    2        3.253546   1.000000
    3        4.466484   1.000000
    4        4.535813   1.000000
    5        7.539694   0.000000
    6        9.424708   0.000000
    7        9.875087   0.000000
    8       10.219167   0.000000
    9       12.305435   0.000000
   10       13.749271   0.000000
   11       15.324548   0.000000
   12       17.098656   0.000000
   13       17.897927   0.000000
   14       18.855611   0.000000
   15       23.890448   0.000000
   16       24.312034   0.000000
 
  0.2666667E+00  0.1333333E+00  0.0000000E+00  0.7111111E-02
    1       -5.372044   1.000000
    2        2.162579   1.000000
    3        4.234707   1.000000
    4        4.250464   1.000000
    5        7.730192   0.000000
    6        9.338707   0.000000
    7       10.182006   0.000000
    8       10.267406   0.000000
    9       13.272054   0.000000
   10       13.916430   0.000000
   11       15.658313   0.000000
   12       17.326302   0.000000
   13       18.845229   0.000000
   14       20.173876   0.000000
   15       22.625715   0.000000
   16       23.164724   0.000000
 
  0.3333333E+00  0.1333333E+00  0.0000000E+00  0.7111111E-02
    1       -4.962127   1.000000
    2        1.072684   1.000000
    3        3.924031   1.000000
    4        4.077196   1.000000
    5        7.826804   0.000000
    6        9.353884   0.000000
    7       10.231993   0.000000
    8       10.478975   0.000000
    9       14.431776   0.000000
   10       14.455154   0.000000
   11       15.434414   0.000000
   12       18.371703   0.000000
   13       19.398125   0.000000
   14       20.859752   0.000000
   15       21.652406   0.000000
   16       22.613730   0.000000
 
  0.4000000E+00  0.1333333E+00  0.0000000E+00  0.7111111E-02
    1       -4.482763   1.000000
    2        0.072579   1.000000
    3        3.620432   1.000000
    4        4.001700   1.000000
    5        7.799601   0.000000
    6        9.294085   0.000000
    7       10.094891   0.000000
    8       11.180153   0.000000
    9       14.990378   0.000000
   10       15.294881   0.000000
   11       15.832338   0.000000
   12       18.369033   0.000000
   13       18.835849   0.000000
   14       20.784333   0.000000
   15       22.549320   0.000000
   16       23.079861   0.000000
 
  0.4666667E+00  0.1333333E+00  0.0000000E+00  0.7111111E-02
    1       -4.004771   1.000000
    2       -0.738979   1.000000
    3        3.370751   1.000000
    4        4.009764   1.000000
    5        7.769197   0.000000
    6        9.217550   0.000000
    7        9.898083   0.000000
    8       12.188663   0.000000
    9       14.754246   0.000000
   10       16.286888   0.000000
   11       16.977644   0.000000
   12       17.028316   0.000000
   13       17.952386   0.000000
   14       21.172000   0.000000
   15       22.923899   0.000000
   16       24.119371   0.000000
 
 -0.4666667E+00  0.1333333E+00  0.0000000E+00  0.7111111E-02
    1       -3.723070   1.000000
    2       -1.154252   1.000000
    3        3.191482   1.000000
    4        4.098605   1.000000
    5        7.796137   0.000000
    6        9.195140   0.000000
    7        9.721211   0.000000
    8       13.292891   0.000000
    9       14.482366   0.000000
   10       15.374709   0.000000
   11       16.706494   0.000000
   12       17.814339   0.000000
   13       18.506336   0.000000
   14       20.049648   0.000000
   15       24.444593   0.000000
   16       24.821432   0.000000
 
 -0.4000000E+00  0.1333333E+00  0.0000000E+00  0.7111111E-02
    1       -3.878666   1.000000
    2       -0.928145   1.000000
    3        3.093898   1.000000
    4        4.261579   1.000000
    5        7.893389   0.000000
    6        9.248018   0.000000
    7        9.593777   0.000000
    8       13.726157   0.000000
    9       14.093808   0.000000
   10       14.466618   0.000000
   11       16.460976   0.000000
   12       18.612770   0.000000
   13       19.228290   0.000000
   14       19.806281   0.000000
   15       22.856183   0.000000
   16       24.800047   0.000000
 
 -0.3333333E+00  0.1333333E+00  0.0000000E+00  0.7111111E-02
    1       -4.323259   1.000000
    2       -0.212505   1.000000
    3        3.087974   1.000000
    4        4.487428   1.000000
    5        8.052653   0.000000
    6        9.366656   0.000000
    7        9.502611   0.000000
    8       12.880794   0.000000
    9       12.997975   0.000000
   10       15.017932   0.000000
   11       17.185814   0.000000
   12       17.323505   0.000000
   13       20.223728   0.000000
   14       20.700914   0.000000
   15       21.822998   0.000000
   16       23.145966   0.000000
 
 -0.2666667E+00  0.1333333E+00  0.0000000E+00  0.7111111E-02
    1       -4.813376   1.000000
    2        0.734278   1.000000
    3        3.186516   1.000000
    4        4.757789   1.000000
    5        8.255507   0.000000
    6        9.381329   0.000000
    7        9.484386   0.000000
    8       11.981965   0.000000
    9       12.199970   0.000000
   10       15.402638   0.000000
   11       16.056995   0.000000
   12       17.954077   0.000000
   13       19.467447   0.000000
   14       21.083261   0.000000
   15       21.854610   0.000000
   16       23.187049   0.000000
 
 -0.2000000E+00  0.1333333E+00  0.0000000E+00  0.7111111E-02
    1       -5.249466   1.000000
    2        1.770056   1.000000
    3        3.417996   1.000000
    4        5.041088   1.000000
    5        8.471721   0.000000
    6        9.135302   0.000000
    7        9.409296   0.000000
    8       11.365638   0.000000
    9       11.831523   0.000000
   10       14.814795   0.000000
   11       15.716090   0.000000
   12       17.264068   0.000000
   13       19.054475   0.000000
   14       21.126444   0.000000
   15       21.480546   0.000000
   16       24.000444   0.000000
 
 -0.1333333E+00  0.1333333E+00  0.0000000E+00  0.3555556E-02
    1       -5.596093   1.000000
    2        2.731102   1.000000
    3        3.872462   1.000000
    4        5.281026   1.000000
    5        8.598822   0.000000
    6        8.801941   0.000000
    7        9.035765   0.000000
    8       11.112564   0.000000
    9       11.904638   0.000000
   10       13.780772   0.000000
   11       15.436319   0.000000
   12       16.778076   0.000000
   13       18.069385   0.000000
   14       20.286322   0.000000
   15       22.695557   0.000000
   16       23.795020   0.000000
 
  0.2000000E+00  0.2000000E+00  0.0000000E+00  0.1777778E-02
    1       -5.515467   1.000000
    2        2.981996   1.000000
    3        4.162210   1.000000
    4        4.162211   1.000000
    5        7.093012   0.000000
    6        9.470019   0.000000
    7       10.457932   0.000000
    8       10.457932   0.000000
    9       12.556085   0.000000
   10       14.088953   0.000000
   11       15.901876   0.000000
   12       17.964403   0.000000
   13       17.964403   0.000000
   14       18.583076   0.000000
   15       24.013248   0.000000
   16       24.013248   0.000000
 
  0.2666667E+00  0.2000000E+00  0.0000000E+00  0.7111111E-02
    1       -5.236239   1.000000
    2        2.216130   1.000000
    3        3.853946   1.000000
    4        3.915164   1.000000
    5        7.084042   0.000000
    6        9.115860   0.000000
    7       10.728578   0.000000
    8       10.916955   0.000000
    9       13.423494   0.000000
   10       14.349276   0.000000
   11       16.508071   0.000000
   12       17.912129   0.000000
   13       18.552226   0.000000
   14       19.669796   0.000000
   15       22.634416   0.000000
   16       22.977819   0.000000
 
  0.3333333E+00  0.2000000E+00  0.0000000E+00  0.7111111E-02
    1       -4.856951   1.000000
    2        1.287167   1.000000
    3        3.450914   1.000000
    4        3.745404   1.000000
    5        7.295944   0.000000
    6        9.132716   0.000000
    7       10.644334   0.000000
    8       11.096913   0.000000
    9       14.662500   0.000000
   10       14.836894   0.000000
   11       16.527721   0.000000
   12       18.472817   0.000000
   13       19.096590   0.000000
   14       20.595642   0.000000
   15       21.433781   0.000000
   16       22.318353   0.000000
 
  0.4000000E+00  0.2000000E+00  0.0000000E+00  0.7111111E-02
    1       -4.396457   1.000000
    2        0.353082   1.000000
    3        3.039728   1.000000
    4        3.662050   1.000000
    5        7.403688   0.000000
    6        9.686527   0.000000
    7       10.477450   0.000000
    8       11.012818   0.000000
    9       15.668395   0.000000
   10       15.905943   0.000000
   11       16.242839   0.000000
   12       18.295598   0.000000
   13       18.947856   0.000000
   14       20.596309   0.000000
   15       21.901777   0.000000
   16       23.402065   0.000000
 
  0.4666667E+00  0.2000000E+00  0.0000000E+00  0.7111111E-02
    1       -3.903756   1.000000
    2       -0.476245   1.000000
    3        2.685012   1.000000
    4        3.667936   1.000000
    5        7.438047   0.000000
    6       10.317096   0.000000
    7       10.647060   0.000000
    8       10.807520   0.000000
    9       15.630203   0.000000
   10       16.564276   0.000000
   11       17.055287   0.000000
   12       17.320143   0.000000
   13       18.192742   0.000000
   14       21.793102   0.000000
   15       23.252983   0.000000
   16       23.559964   0.000000
 
 -0.4666667E+00  0.2000000E+00  0.0000000E+00  0.7111111E-02
    1       -3.523132   1.000000
    2       -1.026414   1.000000
    3        2.415134   1.000000
    4        3.761447   1.000000
    5        7.515242   0.000000
    6       10.211941   0.000000
    7       10.587871   0.000000
    8       11.820241   0.000000
    9       14.899592   0.000000
   10       15.334132   0.000000
   11       17.355409   0.000000
   12       18.125226   0.000000
   13       18.777514   0.000000
   14       21.875399   0.000000
   15       23.841796   0.000000
   16       24.519564   0.000000
 
 -0.4000000E+00  0.2000000E+00  0.0000000E+00  0.7111111E-02
    1       -3.535571   1.000000
    2       -1.005315   1.000000
    3        2.247096   1.000000
    4        3.936690   1.000000
    5        7.675195   0.000000
    6       10.163681   0.000000
    7       10.397268   0.000000
    8       13.111575   0.000000
    9       13.886803   0.000000
   10       14.010949   0.000000
   11       17.132988   0.000000
   12       19.537149   0.000000
   13       20.028405   0.000000
   14       20.559427   0.000000
   15       22.643344   0.000000
   16       24.983910   0.000000
 
 -0.3333333E+00  0.2000000E+00  0.0000000E+00  0.7111111E-02
    1       -3.927041   1.000000
    2       -0.433497   1.000000
    3        2.200103   1.000000
    4        4.182192   1.000000
    5        7.915386   0.000000
    6       10.169584   0.000000
    7       10.224222   0.000000
    8       12.759049   0.000000
    9       12.882153   0.000000
   10       14.451104   0.000000
   11       17.271465   0.000000
   12       19.163635   0.000000
   13       20.427823   0.000000
   14       21.009310   0.000000
   15       21.701999   0.000000
   16       23.638522   0.000000
 
 -0.2666667E+00  0.2000000E+00  0.0000000E+00  0.7111111E-02
    1       -4.418657   1.000000
    2        0.372838   1.000000
    3        2.313053   1.000000
    4        4.477437   1.000000
    5        8.205174   0.000000
    6        9.985347   0.000000
    7       10.165090   0.000000
    8       11.773118   0.000000
    9       12.079770   0.000000
   10       15.611935   0.000000
   11       17.530987   0.000000
   12       17.840207   0.000000
   13       19.264927   0.000000
   14       21.559442   0.000000
   15       22.282165   0.000000
   16       23.035037   0.000000
 
 -0.2000000E+00  0.2000000E+00  0.0000000E+00  0.3555556E-02
    1       -4.874910   1.000000
    2        1.170001   1.000000
    3        2.683153   1.000000
    4        4.785529   1.000000
    5        8.467770   0.000000
    6        9.582380   0.000000
    7        9.886354   0.000000
    8       11.273920   0.000000
    9       11.748243   0.000000
   10       16.219856   0.000000
   11       16.241068   0.000000
   12       17.446530   0.000000
   13       19.270778   0.000000
   14       20.425717   0.000000
   15       22.411707   0.000000
   16       23.718080   0.000000
 
  0.2666667E+00  0.2666667E+00  0.0000000E+00  0.1777778E-02
    1       -4.991660   1.000000
    2        1.802644   1.000000
    3        3.649489   1.000000
    4        3.649489   1.000000
    5        6.672948   0.000000
    6        8.511582   0.000000
    7       11.597301   0.000000
    8       11.597301   0.000000
    9       13.826634   0.000000
   10       14.681138   0.000000
   11       17.263515   0.000000
   12       18.715965   0.000000
   13       18.715965   0.000000
   14       19.492595   0.000000
   15       22.501667   0.000000
   16       22.501667   0.000000
 
  0.3333333E+00  0.2666667E+00  0.0000000E+00  0.7111111E-02
    1       -4.644414   1.000000
    2        1.123215   1.000000
    3        3.301956   1.000000
    4        3.460566   1.000000
    5        6.715401   0.000000
    6        8.209155   0.000000
    7       11.875674   0.000000
    8       12.013405   0.000000
    9       14.812568   0.000000
   10       15.136087   0.000000
   11       17.636170   0.000000
   12       18.949668   0.000000
   13       18.995617   0.000000
   14       20.265444   0.000000
   15       21.498655   0.000000
   16       22.044529   0.000000
 
  0.4000000E+00  0.2666667E+00  0.0000000E+00  0.7111111E-02
    1       -4.207986   1.000000
    2        0.363383   1.000000
    3        2.793081   1.000000
    4        3.359380   1.000000
    5        6.925603   0.000000
    6        8.406994   0.000000
    7       11.811019   0.000000
    8       12.065359   0.000000
    9       15.941453   0.000000
   10       16.117437   0.000000
   11       17.212667   0.000000
   12       18.286137   0.000000
   13       19.515446   0.000000
   14       20.263763   0.000000
   15       21.563437   0.000000
   16       22.959774   0.000000
 
  0.4666667E+00  0.2666667E+00  0.0000000E+00  0.7111111E-02
    1       -3.716031   1.000000
    2       -0.378087   1.000000
    3        2.292527   1.000000
    4        3.350208   1.000000
    5        7.020420   0.000000
    6        9.172456   0.000000
    7       11.666836   0.000000
    8       11.895642   0.000000
    9       16.330648   0.000000
   10       16.783304   0.000000
   11       17.140259   0.000000
   12       17.543703   0.000000
   13       18.986357   0.000000
   14       21.404085   0.000000
   15       22.468093   0.000000
   16       24.083134   0.000000
 
 -0.4666667E+00  0.2666667E+00  0.0000000E+00  0.7111111E-02
    1       -3.270108   1.000000
    2       -0.966393   1.000000
    3        1.892159   1.000000
    4        3.432718   1.000000
    5        7.113577   0.000000
    6       10.256931   0.000000
    7       11.545543   0.000000
    8       11.658241   0.000000
    9       15.218517   0.000000
   10       15.382532   0.000000
   11       18.384896   0.000000
   12       18.552452   0.000000
   13       18.934551   0.000000
   14       22.858189   0.000000
   15       23.140468   0.000000
   16       23.697557   0.000000
 
 -0.4000000E+00  0.2666667E+00  0.0000000E+00  0.7111111E-02
    1       -3.144095   1.000000
    2       -1.113735   1.000000
    3        1.633298   1.000000
    4        3.602276   1.000000
    5        7.287293   0.000000
    6       11.234150   0.000000
    7       11.415812   0.000000
    8       11.748945   0.000000
    9       13.976697   0.000000
   10       14.037058   0.000000
   11       18.450772   0.000000
   12       19.809855   0.000000
   13       20.169527   0.000000
   14       22.251721   0.000000
   15       22.609276   0.000000
   16       23.371228   0.000000
 
 -0.3333333E+00  0.2666667E+00  0.0000000E+00  0.7111111E-02
    1       -3.468034   1.000000
    2       -0.707746   1.000000
    3        1.557612   1.000000
    4        3.848662   1.000000
    5        7.552362   0.000000