<?xml version="1.0" encoding="ISO-8859-1"?>
<modeling>
 <generator>
  <i name="program" type="string">vasp </i>
  <i name="version" type="string">5.4.1  </i>
  <i name="subversion" type="string">24Jun15 (build May 02 2016 14:41:14) complex                          parallel </i>
  <i name="platform" type="string">IFC91_ompi </i>
  <i name="date" type="string">2022 05 10 </i>
  <i name="time" type="string">15:08:10 </i>
 </generator>
 <incar>
  <i type="string" name="SYSTEM"> Real silicon (diamond-like)</i>
  <i type="string" name="PREC">normal</i>
  <i type="string" name="ALGO"> Normal</i>
  <i type="int" name="NELM">   100</i>
  <i type="int" name="NELMIN">     4</i>
  <i type="int" name="IBRION">     2</i>
  <i name="EDIFF">      0.00000100</i>
  <i name="EDIFFG">     -0.00010000</i>
  <i type="int" name="NSW">    20</i>
  <i type="int" name="ISIF">     3</i>
  <i name="ENCUT">    500.00000000</i>
  <i type="int" name="ISMEAR">     0</i>
  <i name="SIGMA">      0.10000000</i>
  <v type="int" name="KPOINT_BSE">    -1     0     0     0</v>
  <i type="int" name="NELM">   100</i>
 </incar>
 <kpoints>
  <generation param="Monkhorst-Pack">
   <v type="int" name="divisions">      15       15       15 </v>
   <v name="usershift">      0.00000000       0.00000000       0.00000000 </v>
   <v name="genvec1">      0.06666667       0.00000000       0.00000000 </v>
   <v name="genvec2">      0.00000000       0.06666667       0.00000000 </v>
   <v name="genvec3">      0.00000000       0.00000000       0.06666667 </v>
   <v name="shift">      0.00000000       0.00000000       0.00000000 </v>
  </generation>
  <varray name="kpointlist" >
   <v>       0.00000000       0.00000000       0.00000000 </v>
   <v>       0.06666667       0.00000000       0.00000000 </v>
   <v>       0.13333333       0.00000000       0.00000000 </v>
   <v>       0.20000000       0.00000000       0.00000000 </v>
   <v>       0.26666667       0.00000000       0.00000000 </v>
   <v>       0.33333333       0.00000000       0.00000000 </v>
   <v>       0.40000000       0.00000000       0.00000000 </v>
   <v>       0.46666667       0.00000000       0.00000000 </v>
   <v>       0.06666667       0.06666667       0.00000000 </v>
   <v>       0.13333333       0.06666667       0.00000000 </v>
   <v>       0.20000000       0.06666667       0.00000000 </v>
   <v>       0.26666667       0.06666667       0.00000000 </v>
   <v>       0.33333333       0.06666667       0.00000000 </v>
   <v>       0.40000000       0.06666667       0.00000000 </v>
   <v>       0.46666667       0.06666667       0.00000000 </v>
   <v>      -0.46666667       0.06666667       0.00000000 </v>
   <v>      -0.40000000       0.06666667       0.00000000 </v>
   <v>      -0.33333333       0.06666667       0.00000000 </v>
   <v>      -0.26666667       0.06666667       0.00000000 </v>
   <v>      -0.20000000       0.06666667       0.00000000 </v>
   <v>      -0.13333333       0.06666667       0.00000000 </v>
   <v>      -0.06666667       0.06666667       0.00000000 </v>
   <v>       0.13333333       0.13333333       0.00000000 </v>
   <v>       0.20000000       0.13333333       0.00000000 </v>
   <v>       0.26666667       0.13333333       0.00000000 </v>
   <v>       0.33333333       0.13333333       0.00000000 </v>
   <v>       0.40000000       0.13333333       0.00000000 </v>
   <v>       0.46666667       0.13333333       0.00000000 </v>
   <v>      -0.46666667       0.13333333       0.00000000 </v>
   <v>      -0.40000000       0.13333333       0.00000000 </v>
   <v>      -0.33333333       0.13333333       0.00000000 </v>
   <v>      -0.26666667       0.13333333       0.00000000 </v>
   <v>      -0.20000000       0.13333333       0.00000000 </v>
   <v>      -0.13333333       0.13333333       0.00000000 </v>
   <v>       0.20000000       0.20000000       0.00000000 </v>
   <v>       0.26666667       0.20000000       0.00000000 </v>
   <v>       0.33333333       0.20000000       0.00000000 </v>
   <v>       0.40000000       0.20000000       0.00000000 </v>
   <v>       0.46666667       0.20000000       0.00000000 </v>
   <v>      -0.46666667       0.20000000       0.00000000 </v>
   <v>      -0.40000000       0.20000000       0.00000000 </v>
   <v>      -0.33333333       0.20000000       0.00000000 </v>
   <v>      -0.26666667       0.20000000       0.00000000 </v>
   <v>      -0.20000000       0.20000000       0.00000000 </v>
   <v>       0.26666667       0.26666667       0.00000000 </v>
   <v>       0.33333333       0.26666667       0.00000000 </v>
   <v>       0.40000000       0.26666667       0.00000000 </v>
   <v>       0.46666667       0.26666667       0.00000000 </v>
   <v>      -0.46666667       0.26666667       0.00000000 </v>
   <v>      -0.40000000       0.26666667       0.00000000 </v>
   <v>      -0.33333333       0.26666667       0.00000000 </v>
   <v>      -0.26666667       0.26666667       0.00000000 </v>
   <v>       0.33333333       0.33333333       0.00000000 </v>
   <v>       0.40000000       0.33333333       0.00000000 </v>
   <v>       0.46666667       0.33333333       0.00000000 </v>
   <v>      -0.46666667       0.33333333       0.00000000 </v>
   <v>      -0.40000000       0.33333333       0.00000000 </v>
   <v>      -0.33333333       0.33333333       0.00000000 </v>
   <v>       0.40000000       0.40000000       0.00000000 </v>
   <v>       0.46666667       0.40000000       0.00000000 </v>
   <v>      -0.46666667       0.40000000       0.00000000 </v>
   <v>      -0.40000000       0.40000000       0.00000000 </v>
   <v>       0.46666667       0.46666667       0.00000000 </v>
   <v>      -0.46666667       0.46666667       0.00000000 </v>
   <v>       0.20000000       0.13333333       0.06666667 </v>
   <v>       0.26666667       0.13333333       0.06666667 </v>
   <v>       0.33333333       0.13333333       0.06666667 </v>
   <v>       0.40000000       0.13333333       0.06666667 </v>
   <v>       0.46666667       0.13333333       0.06666667 </v>
   <v>      -0.46666667       0.13333333       0.06666667 </v>
   <v>       0.26666667       0.20000000       0.06666667 </v>
   <v>       0.33333333       0.20000000       0.06666667 </v>
   <v>       0.40000000       0.20000000       0.06666667 </v>
   <v>       0.46666667       0.20000000       0.06666667 </v>
   <v>      -0.46666667       0.20000000       0.06666667 </v>
   <v>      -0.40000000       0.20000000       0.06666667 </v>
   <v>      -0.33333333       0.20000000       0.06666667 </v>
   <v>      -0.26666667       0.20000000       0.06666667 </v>
   <v>      -0.20000000       0.20000000       0.06666667 </v>
   <v>      -0.13333333       0.20000000       0.06666667 </v>
   <v>       0.33333333       0.26666667       0.06666667 </v>
   <v>       0.40000000       0.26666667       0.06666667 </v>
   <v>       0.46666667       0.26666667       0.06666667 </v>
   <v>      -0.46666667       0.26666667       0.06666667 </v>
   <v>      -0.40000000       0.26666667       0.06666667 </v>
   <v>      -0.33333333       0.26666667       0.06666667 </v>
   <v>      -0.26666667       0.26666667       0.06666667 </v>
   <v>      -0.20000000       0.26666667       0.06666667 </v>
   <v>       0.40000000       0.33333333       0.06666667 </v>
   <v>       0.46666667       0.33333333       0.06666667 </v>
   <v>      -0.46666667       0.33333333       0.06666667 </v>
   <v>      -0.40000000       0.33333333       0.06666667 </v>
   <v>      -0.33333333       0.33333333       0.06666667 </v>
   <v>      -0.26666667       0.33333333       0.06666667 </v>
   <v>       0.46666667       0.40000000       0.06666667 </v>
   <v>      -0.46666667       0.40000000       0.06666667 </v>
   <v>      -0.40000000       0.40000000       0.06666667 </v>
   <v>      -0.33333333       0.40000000       0.06666667 </v>
   <v>      -0.46666667       0.46666667       0.06666667 </v>
   <v>      -0.40000000       0.46666667       0.06666667 </v>
   <v>       0.40000000       0.26666667       0.13333333 </v>
   <v>       0.46666667       0.26666667       0.13333333 </v>
   <v>      -0.46666667       0.26666667       0.13333333 </v>
   <v>      -0.40000000       0.26666667       0.13333333 </v>
   <v>       0.46666667       0.33333333       0.13333333 </v>
   <v>      -0.46666667       0.33333333       0.13333333 </v>
   <v>      -0.40000000       0.33333333       0.13333333 </v>
   <v>      -0.33333333       0.33333333       0.13333333 </v>
   <v>      -0.26666667       0.33333333       0.13333333 </v>
   <v>      -0.20000000       0.33333333       0.13333333 </v>
   <v>      -0.46666667       0.40000000       0.13333333 </v>
   <v>      -0.40000000       0.40000000       0.13333333 </v>
   <v>      -0.33333333       0.40000000       0.13333333 </v>
   <v>      -0.26666667       0.40000000       0.13333333 </v>
   <v>      -0.40000000       0.46666667       0.13333333 </v>
   <v>      -0.33333333       0.46666667       0.13333333 </v>
   <v>      -0.40000000       0.40000000       0.20000000 </v>
   <v>      -0.33333333       0.40000000       0.20000000 </v>
   <v>      -0.33333333       0.46666667       0.20000000 </v>
   <v>      -0.26666667       0.46666667       0.20000000 </v>
  </varray>
  <varray name="weights" >
   <v>       0.00029630 </v>
   <v>       0.00237037 </v>
   <v>       0.00237037 </v>
   <v>       0.00237037 </v>
   <v>       0.00237037 </v>
   <v>       0.00237037 </v>
   <v>       0.00237037 </v>
   <v>       0.00237037 </v>
   <v>       0.00177778 </v>
   <v>       0.00711111 </v>
   <v>       0.00711111 </v>
   <v>       0.00711111 </v>
   <v>       0.00711111 </v>
   <v>       0.00711111 </v>
   <v>       0.00711111 </v>
   <v>       0.00711111 </v>
   <v>       0.00711111 </v>
   <v>       0.00711111 </v>
   <v>       0.00711111 </v>
   <v>       0.00711111 </v>
   <v>       0.00711111 </v>
   <v>       0.00355556 </v>
   <v>       0.00177778 </v>
   <v>       0.00711111 </v>
   <v>       0.00711111 </v>
   <v>       0.00711111 </v>
   <v>       0.00711111 </v>
   <v>       0.00711111 </v>
   <v>       0.00711111 </v>
   <v>       0.00711111 </v>
   <v>       0.00711111 </v>
   <v>       0.00711111 </v>
   <v>       0.00711111 </v>
   <v>       0.00355556 </v>
   <v>       0.00177778 </v>
   <v>       0.00711111 </v>
   <v>       0.00711111 </v>
   <v>       0.00711111 </v>
   <v>       0.00711111 </v>
   <v>       0.00711111 </v>
   <v>       0.00711111 </v>
   <v>       0.00711111 </v>
   <v>       0.00711111 </v>
   <v>       0.00355556 </v>
   <v>       0.00177778 </v>
   <v>       0.00711111 </v>
   <v>       0.00711111 </v>
   <v>       0.00711111 </v>
   <v>       0.00711111 </v>
   <v>       0.00711111 </v>
   <v>       0.00711111 </v>
   <v>       0.00355556 </v>
   <v>       0.00177778 </v>
   <v>       0.00711111 </v>
   <v>       0.00711111 </v>
   <v>       0.00711111 </v>
   <v>       0.00711111 </v>
   <v>       0.00355556 </v>
   <v>       0.00177778 </v>
   <v>       0.00711111 </v>
   <v>       0.00711111 </v>
   <v>       0.00355556 </v>
   <v>       0.00177778 </v>
   <v>       0.00355556 </v>
   <v>       0.00711111 </v>
   <v>       0.01422222 </v>
   <v>       0.01422222 </v>
   <v>       0.01422222 </v>
   <v>       0.01422222 </v>
   <v>       0.01422222 </v>
   <v>       0.00711111 </v>
   <v>       0.01422222 </v>
   <v>       0.01422222 </v>
   <v>       0.01422222 </v>
   <v>       0.01422222 </v>
   <v>       0.01422222 </v>
   <v>       0.01422222 </v>
   <v>       0.01422222 </v>
   <v>       0.01422222 </v>
   <v>       0.00711111 </v>
   <v>       0.00711111 </v>
   <v>       0.01422222 </v>
   <v>       0.01422222 </v>
   <v>       0.01422222 </v>
   <v>       0.01422222 </v>
   <v>       0.01422222 </v>
   <v>       0.01422222 </v>
   <v>       0.00711111 </v>
   <v>       0.00711111 </v>
   <v>       0.01422222 </v>
   <v>       0.01422222 </v>
   <v>       0.01422222 </v>
   <v>       0.01422222 </v>
   <v>       0.00711111 </v>
   <v>       0.00711111 </v>
   <v>       0.01422222 </v>
   <v>       0.01422222 </v>
   <v>       0.00711111 </v>
   <v>       0.00711111 </v>
   <v>       0.00711111 </v>
   <v>       0.00711111 </v>
   <v>       0.01422222 </v>
   <v>       0.01422222 </v>
   <v>       0.01422222 </v>
   <v>       0.00711111 </v>
   <v>       0.01422222 </v>
   <v>       0.01422222 </v>
   <v>       0.01422222 </v>
   <v>       0.01422222 </v>
   <v>       0.00711111 </v>
   <v>       0.00711111 </v>
   <v>       0.01422222 </v>
   <v>       0.01422222 </v>
   <v>       0.00711111 </v>
   <v>       0.00711111 </v>
   <v>       0.00711111 </v>
   <v>       0.00711111 </v>
   <v>       0.01422222 </v>
   <v>       0.00711111 </v>
   <v>       0.00711111 </v>
  </varray>
 </kpoints>
 <parameters>
  <separator name="general" >
   <i type="string" name="SYSTEM">Real silicon (diamond-like)</i>
   <i type="logical" name="LCOMPAT"> F  </i>
  </separator>
  <separator name="electronic" >
   <i type="string" name="PREC">normal</i>
   <i name="ENMAX">    500.00000000</i>
   <i name="ENAUG">    322.06900000</i>
   <i name="EDIFF">      0.00000100</i>
   <i type="int" name="IALGO">    38</i>
   <i type="int" name="IWAVPR">    11</i>
   <i type="int" name="NBANDS">    16</i>
   <i name="NELECT">      8.00000000</i>
   <i type="int" name="TURBO">     0</i>
   <i type="int" name="IRESTART">     0</i>
   <i type="int" name="NREBOOT">     0</i>
   <i type="int" name="NMIN">     0</i>
   <i name="EREF">      0.00000000</i>
   <separator name="electronic smearing" >
    <i type="int" name="ISMEAR">     0</i>
    <i name="SIGMA">      0.10000000</i>
    <i name="KSPACING">      0.50000000</i>
    <i type="logical" name="KGAMMA"> T  </i>
   </separator>
   <separator name="electronic projectors" >
    <i type="logical" name="LREAL"> F  </i>
    <v name="ROPT">      0.00000000</v>
    <i type="int" name="LMAXPAW">  -100</i>
    <i type="int" name="LMAXMIX">     2</i>
    <i type="logical" name="NLSPLINE"> F  </i>
   </separator>
   <separator name="electronic startup" >
    <i type="int" name="ISTART">     0</i>
    <i type="int" name="ICHARG">     2</i>
    <i type="int" name="INIWAV">     1</i>
   </separator>
   <separator name="electronic spin" >
    <i type="int" name="ISPIN">     1</i>
    <i type="logical" name="LNONCOLLINEAR"> F  </i>
    <v name="MAGMOM">      1.00000000      1.00000000</v>
    <i name="NUPDOWN">     -1.00000000</i>
    <i type="logical" name="LSORBIT"> F  </i>
    <v name="SAXIS">      0.00000000      0.00000000      1.00000000</v>
    <i type="logical" name="LSPIRAL"> F  </i>
    <v name="QSPIRAL">      0.00000000      0.00000000      0.00000000</v>
    <i type="logical" name="LZEROZ"> F  </i>
   </separator>
   <separator name="electronic exchange-correlation" >
    <i type="logical" name="LASPH"> F  </i>
    <i type="logical" name="LMETAGGA"> F  </i>
   </separator>
   <separator name="electronic convergence" >
    <i type="int" name="NELM">   100</i>
    <i type="int" name="NELMDL">    -5</i>
    <i type="int" name="NELMIN">     4</i>
    <i name="ENINI">    500.00000000</i>
    <separator name="electronic convergence detail" >
     <i type="logical" name="LDIAG"> T  </i>
     <i type="logical" name="LSUBROT"> F  </i>
     <i name="WEIMIN">      0.00100000</i>
     <i name="EBREAK">      0.00000002</i>
     <i name="DEPER">      0.30000000</i>
     <i type="int" name="NRMM">     4</i>
     <i name="TIME">      0.40000000</i>
    </separator>
   </separator>
   <separator name="electronic mixer" >
    <i name="AMIX">      0.40000000</i>
    <i name="BMIX">      1.00000000</i>
    <i name="AMIN">      0.10000000</i>
    <i name="AMIX_MAG">      1.60000000</i>
    <i name="BMIX_MAG">      1.00000000</i>
    <separator name="electronic mixer details" >
     <i type="int" name="IMIX">     4</i>
     <i type="logical" name="MIXFIRST"> F  </i>
     <i type="int" name="MAXMIX">   -45</i>
     <i name="WC">    100.00000000</i>
     <i type="int" name="INIMIX">     1</i>
     <i type="int" name="MIXPRE">     1</i>
     <i type="int" name="MREMOVE">     5</i>
    </separator>
   </separator>
   <separator name="electronic dipolcorrection" >
    <i type="logical" name="LDIPOL"> F  </i>
    <i type="logical" name="LMONO"> F  </i>
    <i type="int" name="IDIPOL">     0</i>
    <i name="EPSILON">      1.00000000</i>
    <v name="DIPOL">   -100.00000000   -100.00000000   -100.00000000</v>
    <i name="EFIELD">      0.00000000</i>
   </separator>
  </separator>
  <separator name="grids" >
   <i type="int" name="NGX">    24</i>
   <i type="int" name="NGY">    24</i>
   <i type="int" name="NGZ">    24</i>
   <i type="int" name="NGXF">    48</i>
   <i type="int" name="NGYF">    48</i>
   <i type="int" name="NGZF">    48</i>
   <i type="logical" name="ADDGRID"> F  </i>
  </separator>
  <separator name="ionic" >
   <i type="int" name="NSW">    20</i>
   <i type="int" name="IBRION">     2</i>
   <i type="int" name="ISIF">     3</i>
   <i name="PSTRESS">      0.00000000</i>
   <i name="EDIFFG">     -0.00010000</i>
   <i type="int" name="NFREE">     1</i>
   <i name="POTIM">      0.50000000</i>
   <i name="SMASS">     -3.00000000</i>
   <i name="SCALEE">      1.00000000</i>
  </separator>
  <separator name="ionic md" >
   <i name="TEBEG">      0.00010000</i>
   <i name="TEEND">      0.00010000</i>
   <i type="int" name="NBLOCK">     1</i>
   <i type="int" name="KBLOCK">    20</i>
   <i type="int" name="NPACO">   256</i>
   <i name="APACO">     16.00000000</i>
  </separator>
  <separator name="symmetry" >
   <i type="int" name="ISYM">     2</i>
   <i name="SYMPREC">      0.00001000</i>
  </separator>
  <separator name="dos" >
   <i type="logical" name="LORBIT"> F  </i>
   <v name="RWIGS">     -1.00000000</v>
   <i type="int" name="NEDOS">   301</i>
   <i name="EMIN">     10.00000000</i>
   <i name="EMAX">    -10.00000000</i>
   <i name="EFERMI">      0.00000000</i>
  </separator>
  <separator name="writing" >
   <i type="int" name="NWRITE">     2</i>
   <i type="logical" name="LWAVE"> T  </i>
   <i type="logical" name="LCHARG"> T  </i>
   <i type="logical" name="LPARD"> F  </i>
   <i type="logical" name="LVTOT"> F  </i>
   <i type="logical" name="LVHAR"> F  </i>
   <i type="logical" name="LELF"> F  </i>
   <i type="logical" name="LOPTICS"> F  </i>
   <v name="STM">      0.00000000      0.00000000      0.00000000      0.00000000      0.00000000      0.00000000      0.00000000</v>
  </separator>
  <separator name="performance" >
   <i type="int" name="NPAR">    16</i>
   <i type="int" name="NSIM">     4</i>
   <i type="int" name="NBLK">    -1</i>
   <i type="logical" name="LPLANE"> T  </i>
   <i type="logical" name="LSCALAPACK"> T  </i>
   <i type="logical" name="LSCAAWARE"> F  </i>
   <i type="logical" name="LSCALU"> F  </i>
   <i type="logical" name="LASYNC"> F  </i>
   <i type="logical" name="LORBITALREAL"> F  </i>
  </separator>
  <separator name="miscellaneous" >
   <i type="int" name="IDIOT">     3</i>
   <i type="logical" name="LMUSIC"> F  </i>
   <v name="POMASS">     28.08500000</v>
   <v name="DARWINR">      0.00000000</v>
   <v name="DARWINV">      1.00000000</v>
   <i type="logical" name="LCORR"> T  </i>
  </separator>
  <i type="logical" name="GGA_COMPAT"> T  </i>
  <i type="logical" name="LBERRY"> F  </i>
  <i type="int" name="ICORELEVEL">     0</i>
  <i type="logical" name="LDAU"> F  </i>
  <i type="int" name="I_CONSTRAINED_M">     0</i>
  <separator name="electronic exchange-correlation" >
   <i type="string" name="GGA">--</i>
   <i type="int" name="VOSKOWN">     0</i>
   <i type="logical" name="LHFCALC"> F  </i>
   <i type="string" name="PRECFOCK"></i>
   <i type="logical" name="LSYMGRAD"> F  </i>
   <i type="logical" name="LHFONE"> F  </i>
   <i type="logical" name="LRHFCALC"> F  </i>
   <i type="logical" name="LTHOMAS"> F  </i>
   <i type="logical" name="LMODELHF"> F  </i>
   <i name="ENCUT4O">     -1.00000000</i>
   <i type="int" name="EXXOEP">     0</i>
   <i type="int" name="FOURORBIT">     0</i>
   <i name="AEXX">      0.00000000</i>
   <i name="HFALPHA">      0.00000000</i>
   <i name="MCALPHA">      0.00000000</i>
   <i name="ALDAX">      1.00000000</i>
   <i name="AGGAX">      1.00000000</i>
   <i name="ALDAC">      1.00000000</i>
   <i name="AGGAC">      1.00000000</i>
   <i type="int" name="NKREDX">     1</i>
   <i type="int" name="NKREDY">     1</i>
   <i type="int" name="NKREDZ">     1</i>
   <i type="logical" name="SHIFTRED"> F  </i>
   <i type="logical" name="ODDONLY"> F  </i>
   <i type="logical" name="EVENONLY"> F  </i>
   <i type="int" name="LMAXFOCK">     0</i>
   <i type="int" name="NMAXFOCKAE">     0</i>
   <i type="logical" name="LFOCKAEDFT"> F  </i>
   <i name="HFSCREEN">      0.00000000</i>
   <i name="HFSCREENC">      0.00000000</i>
   <i type="int" name="NBANDSGWLOW">     0</i>
  </separator>
  <separator name="vdW DFT" >
   <i type="logical" name="LUSE_VDW"> F  </i>
   <i name="Zab_VDW">     -0.84910000</i>
   <i name="PARAM1">      0.12340000</i>
   <i name="PARAM2">      1.00000000</i>
   <i name="PARAM3">      0.00000000</i>
  </separator>
  <separator name="model GW" >
   <i type="int" name="MODEL_GW">     0</i>
   <i name="MODEL_EPS0">     12.47812500</i>
   <i name="MODEL_ALPHA">      1.00000000</i>
  </separator>
  <separator name="linear response parameters" >
   <i type="logical" name="LEPSILON"> F  </i>
   <i type="logical" name="LRPA"> F  </i>
   <i type="logical" name="LNABLA"> F  </i>
   <i type="logical" name="LVEL"> F  </i>
   <i type="int" name="KINTER">     0</i>
   <i name="CSHIFT">      0.10000000</i>
   <i name="OMEGAMAX">     -1.00000000</i>
   <i name="DEG_THRESHOLD">      0.00200000</i>
  </separator>
  <separator name="orbital magnetization" >
   <i type="logical" name="NUCIND"> F  </i>
   <v name="MAGPOS">      0.00000000      0.00000000      0.00000000</v>
   <i type="logical" name="LNICSALL"> T  </i>
   <i type="logical" name="ORBITALMAG"> F  </i>
   <i type="logical" name="LMAGBLOCH"> F  </i>
   <i type="logical" name="LCHIMAG"> F  </i>
   <i type="logical" name="LGAUGE"> T  </i>
   <i type="int" name="MAGATOM">     0</i>
   <v name="MAGDIPOL">      0.00000000      0.00000000      0.00000000</v>
   <v name="AVECCONST">      0.00000000      0.00000000      0.00000000</v>
  </separator>
  <separator name="response functions" >
   <i type="logical" name="LADDER"> F  </i>
   <i type="logical" name="LFXC"> F  </i>
   <i type="logical" name="LHARTREE"> T  </i>
   <i type="int" name="IBSE">     0</i>
   <v type="int" name="KPOINT">    -1     0     0     0</v>
   <i type="logical" name="LTCTE"> F  </i>
   <i type="logical" name="LTETE"> F  </i>
   <i type="logical" name="LTRIPLET"> F  </i>
   <i type="logical" name="LFXCEPS"> F  </i>
   <i type="logical" name="LFXHEG"> F  </i>
   <i type="int" name="NATURALO">     0</i>
   <i type="logical" name="L2ORDER"> F  </i>
   <i type="logical" name="LUSEW"> F  </i>
   <i name="ENCUTGW">     -2.00000000</i>
   <i name="ENCUTGWSOFT">     -2.00000000</i>
   <i name="ENCUTLF">     -1.00000000</i>
   <i type="int" name="LMAXMP2">    -1</i>
   <i name="SCISSOR">      0.00000000</i>
   <i type="int" name="NOMEGA">     0</i>
   <i type="int" name="NOMEGAR">     0</i>
   <i type="int" name="NBANDSGW">    -1</i>
   <i type="int" name="NBANDSO">    -1</i>
   <i type="int" name="NBANDSV">    -1</i>
   <i type="int" name="NELM">   100</i>
   <i type="int" name="NELMHF">     1</i>
   <i type="int" name="DIM">     3</i>
   <i type="int" name="ANTIRES">     0</i>
   <i name="OMEGAMAX">    -30.00000000</i>
   <i name="OMEGAMIN">    -30.00000000</i>
   <i name="OMEGATL">   -200.00000000</i>
   <i type="int" name="OMEGAGRID">     0</i>
   <i name="CSHIFT">     -0.10000000</i>
   <i type="logical" name="SELFENERGY"> F  </i>
   <i type="logical" name="LSPECTRAL"> F  </i>
   <i type="logical" name="LSPECTRALGW"> F  </i>
   <i type="logical" name="LSINGLES"> F  </i>
   <i type="logical" name="LFERMIGW"> F  </i>
   <i type="logical" name="ODDONLYGW"> F  </i>
   <i type="logical" name="EVENONLYGW"> F  </i>
   <i type="int" name="NKREDLFX">     1</i>
   <i type="int" name="NKREDLFY">     1</i>
   <i type="int" name="NKREDLFZ">     1</i>
   <i type="int" name="MAXMEM">  1800</i>
   <i type="int" name="TELESCOPE">     0</i>
   <i type="int" name="TAUPAR">     1</i>
   <i type="int" name="OMEGAPAR">    -1</i>
   <i name="LAMBDA">      1.00000000</i>
  </separator>
  <separator name="External order field" >
   <i name="OFIELD_KAPPA">      0.00000000</i>
   <v name="OFIELD_K">      0.00000000      0.00000000      0.00000000</v>
   <i name="OFIELD_Q6_NEAR">      0.00000000</i>
   <i name="OFIELD_Q6_FAR">      0.00000000</i>
   <i name="OFIELD_A">      0.00000000</i>
  </separator>
 </parameters>
 <atominfo>
  <atoms>       2 </atoms>
  <types>       1 </types>
  <array name="atoms" >
   <dimension dim="1">ion</dimension>
   <field type="string">element</field>
   <field type="int">atomtype</field>
   <set>
    <rc><c>Si</c><c>   1</c></rc>
    <rc><c>Si</c><c>   1</c></rc>
   </set>
  </array>
  <array name="atomtypes" >
   <dimension dim="1">type</dimension>
   <field type="int">atomspertype</field>
   <field type="string">element</field>
   <field>mass</field>
   <field>valence</field>
   <field type="string">pseudopotential</field>
   <set>
    <rc><c>   2</c><c>Si</c><c>     28.08500000</c><c>      4.00000000</c><c> PAW_PBE Si 05Jan2001                   </c></rc>
   </set>
  </array>
 </atominfo>
 <structure name="initialpos" >
  <crystal>
   <varray name="basis" >
    <v>       0.00000000       2.75000000       2.75000000 </v>
    <v>       2.75000000       0.00000000       2.75000000 </v>
    <v>       2.75000000       2.75000000       0.00000000 </v>
   </varray>
   <i name="volume">     41.59375000 </i>
   <varray name="rec_basis" >
    <v>      -0.18181818       0.18181818       0.18181818 </v>
    <v>       0.18181818      -0.18181818       0.18181818 </v>
    <v>       0.18181818       0.18181818      -0.18181818 </v>
   </varray>
  </crystal>
  <varray name="positions" >
   <v>       0.87500000       0.87500000       0.87500000 </v>
   <v>       0.12500000       0.12500000       0.12500000 </v>
  </varray>
 </structure>
 <calculation>
  <scstep>
   <time name="dav">    0.43    0.43</time>
   <time name="total">    0.44    0.47</time>
   <energy>
    <i name="alphaZ">      3.23732084 </i>
    <i name="ewald">   -225.65453461 </i>
    <i name="hartreedc">    -11.58535014 </i>
    <i name="XCdc">    -18.75122845 </i>
    <i name="pawpsdc">     65.95520812 </i>
    <i name="pawaedc">    -30.76852678 </i>
    <i name="eentropy">     -0.00177128 </i>
    <i name="bandstr">      9.34138966 </i>
    <i name="atom">    206.13251344 </i>
    <i name="e_fr_energy">     -2.09497921 </i>
    <i name="e_wo_entrp">     -2.09320793 </i>
    <i name="e_0_energy">     -2.09409357 </i>
   </energy>
  </scstep>
  <scstep>
   <time name="dav">    0.68    0.69</time>
   <time name="total">    0.69    0.69</time>
   <energy>
    <i name="e_fr_energy">    -10.94876087 </i>
    <i name="e_wo_entrp">    -10.94876087 </i>
    <i name="e_0_energy">    -10.94876087 </i>
   </energy>
  </scstep>
  <scstep>
   <time name="dav">    0.50    0.50</time>
   <time name="total">    0.50    0.50</time>
   <energy>
    <i name="e_fr_energy">    -11.00507131 </i>
    <i name="e_wo_entrp">    -11.00507131 </i>
    <i name="e_0_energy">    -11.00507131 </i>
   </energy>
  </scstep>
  <scstep>
   <time name="dav">    0.98    0.98</time>
   <time name="total">    0.98    0.99</time>
   <energy>
    <i name="e_fr_energy">    -11.00522984 </i>
    <i name="e_wo_entrp">    -11.00522984 </i>
    <i name="e_0_energy">    -11.00522984 </i>
   </energy>
  </scstep>
  <scstep>
   <time name="dav">    0.49    0.49</time>
   <time name="total">    0.52    0.52</time>
   <energy>
    <i name="e_fr_energy">    -11.00522986 </i>
    <i name="e_wo_entrp">    -11.00522986 </i>
    <i name="e_0_energy">    -11.00522986 </i>
   </energy>
  </scstep>
  <scstep>
   <time name="dav">    0.68    0.69</time>
   <time name="total">    0.72    0.73</time>
   <energy>
    <i name="e_fr_energy">    -10.89632255 </i>
    <i name="e_wo_entrp">    -10.89632255 </i>
    <i name="e_0_energy">    -10.89632255 </i>
   </energy>
  </scstep>
  <scstep>
   <time name="dav">    0.72    0.72</time>
   <time name="total">    0.75    0.77</time>
   <energy>
    <i name="e_fr_energy">    -10.84517748 </i>
    <i name="e_wo_entrp">    -10.84517747 </i>
    <i name="e_0_energy">    -10.84517748 </i>
   </energy>
  </scstep>
  <scstep>
   <time name="dav">    0.53    0.53</time>
   <time name="total">    0.57    0.57</time>
   <energy>
    <i name="e_fr_energy">    -10.84646478 </i>
    <i name="e_wo_entrp">    -10.84646477 </i>
    <i name="e_0_energy">    -10.84646477 </i>
   </energy>
  </scstep>
  <scstep>
   <time name="dav">    0.92    0.92</time>
   <time name="total">    0.95    0.95</time>
   <energy>
    <i name="e_fr_energy">    -10.84656929 </i>
    <i name="e_wo_entrp">    -10.84656929 </i>
    <i name="e_0_energy">    -10.84656929 </i>
   </energy>
  </scstep>
  <scstep>
   <time name="dav">    0.56    0.56</time>
   <time name="total">    0.59    0.60</time>
   <energy>
    <i name="e_fr_energy">    -10.84658612 </i>
    <i name="e_wo_entrp">    -10.84658611 </i>
    <i name="e_0_energy">    -10.84658611 </i>
   </energy>
  </scstep>
  <scstep>
   <time name="dav">    0.89    0.89</time>
   <time name="total">    0.89    0.90</time>
   <energy>
    <i name="alphaZ">      3.23732084 </i>
    <i name="ewald">   -225.65453461 </i>
    <i name="hartreedc">    -15.37603360 </i>
    <i name="XCdc">    -18.13808971 </i>
    <i name="pawpsdc">     73.08692416 </i>
    <i name="pawaedc">    -38.09128836 </i>
    <i name="eentropy">     -0.00000000 </i>
    <i name="bandstr">      3.95660255 </i>
    <i name="atom">    206.13251344 </i>
    <i name="e_fr_energy">    -10.84658530 </i>
    <i name="e_wo_entrp">    -10.84658529 </i>
    <i name="e_0_energy">    -10.84658529 </i>
   </energy>
  </scstep>
  <structure>
   <crystal>
    <varray name="basis" >
     <v>       0.00000000       2.75000000       2.75000000 </v>
     <v>       2.75000000       0.00000000       2.75000000 </v>
     <v>       2.75000000       2.75000000       0.00000000 </v>
    </varray>
    <i name="volume">     41.59375000 </i>
    <varray name="rec_basis" >
     <v>      -0.18181818       0.18181818       0.18181818 </v>
     <v>       0.18181818      -0.18181818       0.18181818 </v>
     <v>       0.18181818       0.18181818      -0.18181818 </v>
    </varray>
   </crystal>
   <varray name="positions" >
    <v>       0.87500000       0.87500000       0.87500000 </v>
    <v>       0.12500000       0.12500000       0.12500000 </v>
   </varray>
  </structure>
  <varray name="forces" >
   <v>       0.00000000       0.00000000       0.00000000 </v>
   <v>      -0.00000000      -0.00000000      -0.00000000 </v>
  </varray>
  <varray name="stress" >
   <v>     -14.71424127       0.00000000       0.00000000 </v>
   <v>       0.00000000     -14.71424127      -0.00000000 </v>
   <v>      -0.00000000       0.00000000     -14.71424127 </v>
  </varray>
  <energy>
   <i name="e_fr_energy">    -10.84658530 </i>
   <i name="e_wo_entrp">    -10.84658529 </i>
   <i name="e_0_energy">     -0.00000000 </i>
  </energy>
  <time name="totalsc">    8.29    8.44</time>
 </calculation>
 <calculation>
  <scstep>
   <time name="dav">    0.54    0.54</time>
   <time name="total">    0.57    0.60</time>
   <energy>
    <i name="alphaZ">      3.32848337 </i>
    <i name="ewald">   -227.75309198 </i>
    <i name="hartreedc">    -15.51930010 </i>
    <i name="XCdc">    -18.00357055 </i>
    <i name="pawpsdc">     73.08729924 </i>
    <i name="pawaedc">    -38.09163890 </i>
    <i name="eentropy">     -0.00000007 </i>
    <i name="bandstr">      5.96634827 </i>
    <i name="atom">    206.13251344 </i>
    <i name="e_fr_energy">    -10.85295727 </i>
    <i name="e_wo_entrp">    -10.85295721 </i>
    <i name="e_0_energy">    -10.85295724 </i>
   </energy>
  </scstep>
  <scstep>
   <time name="dav">    0.54    0.54</time>
   <time name="total">    0.57    0.58</time>
   <energy>
    <i name="e_fr_energy">    -10.85008886 </i>
    <i name="e_wo_entrp">    -10.85008882 </i>
    <i name="e_0_energy">    -10.85008884 </i>
   </energy>
  </scstep>
  <scstep>
   <time name="dav">    0.56    0.56</time>
   <time name="total">    0.59    0.60</time>
   <energy>
    <i name="e_fr_energy">    -10.84863830 </i>
    <i name="e_wo_entrp">    -10.84863829 </i>
    <i name="e_0_energy">    -10.84863830 </i>
   </energy>
  </scstep>
  <scstep>
   <time name="dav">    0.63    0.64</time>
   <time name="total">    0.67    0.68</time>
   <energy>
    <i name="e_fr_energy">    -10.84864124 </i>
    <i name="e_wo_entrp">    -10.84864122 </i>
    <i name="e_0_energy">    -10.84864123 </i>
   </energy>
  </scstep>
  <scstep>
   <time name="dav">    0.81    0.81</time>
   <time name="total">    0.84    0.85</time>
   <energy>
    <i name="e_fr_energy">    -10.84864284 </i>
    <i name="e_wo_entrp">    -10.84864282 </i>
    <i name="e_0_energy">    -10.84864283 </i>
   </energy>
  </scstep>
  <scstep>
   <time name="dav">    0.48    0.48</time>
   <time name="total">    0.49    0.49</time>
   <energy>
    <i name="alphaZ">      3.32848337 </i>
    <i name="ewald">   -227.75309198 </i>
    <i name="hartreedc">    -15.04346184 </i>
    <i name="XCdc">    -18.01185067 </i>
    <i name="pawpsdc">     73.94965246 </i>
    <i name="pawaedc">    -38.97768112 </i>
    <i name="eentropy">     -0.00000002 </i>
    <i name="bandstr">      5.52679371 </i>
    <i name="atom">    206.13251344 </i>
    <i name="e_fr_energy">    -10.84864264 </i>
    <i name="e_wo_entrp">    -10.84864263 </i>
    <i name="e_0_energy">    -10.84864264 </i>
   </energy>
  </scstep>
  <structure>
   <crystal>
    <varray name="basis" >
     <v>       0.00000000       2.72466101       2.72466101 </v>
     <v>       2.72466101       0.00000000       2.72466101 </v>
     <v>       2.72466101       2.72466101       0.00000000 </v>
    </varray>
    <i name="volume">     40.45455496 </i>
    <varray name="rec_basis" >
     <v>      -0.18350907       0.18350907       0.18350907 </v>
     <v>       0.18350907      -0.18350907       0.18350907 </v>
     <v>       0.18350907       0.18350907      -0.18350907 </v>
    </varray>
   </crystal>
   <varray name="positions" >
    <v>       0.87500000       0.87500000       0.87500000 </v>
    <v>       0.12500000       0.12500000       0.12500000 </v>
   </varray>
  </structure>
  <varray name="forces" >
   <v>      -0.00000000      -0.00000000      -0.00000000 </v>
   <v>       0.00000000       0.00000000       0.00000000 </v>
  </varray>
  <varray name="stress" >
   <v>       9.63566107      -0.00000000      -0.00000000 </v>
   <v>      -0.00000000       9.63566107      -0.00000000 </v>
   <v>      -0.00000000      -0.00000000       9.63566107 </v>
  </varray>
  <energy>
   <i name="e_fr_energy">    -10.84864264 </i>
   <i name="e_wo_entrp">    -10.84864264 </i>
   <i name="e_0_energy">     -0.00000002 </i>
  </energy>
  <time name="totalsc">    4.33    4.40</time>
 </calculation>
 <calculation>
  <scstep>
   <time name="dav">    0.54    0.54</time>
   <time name="total">    0.57    0.59</time>
   <energy>
    <i name="alphaZ">      3.29365931 </i>
    <i name="ewald">   -226.95602114 </i>
    <i name="hartreedc">    -14.99075619 </i>
    <i name="XCdc">    -18.06326233 </i>
    <i name="pawpsdc">     73.94764048 </i>
    <i name="pawaedc">    -38.97560542 </i>
    <i name="eentropy">     -0.00000001 </i>
    <i name="bandstr">      4.76128913 </i>
    <i name="atom">    206.13251344 </i>
    <i name="e_fr_energy">    -10.85054272 </i>
    <i name="e_wo_entrp">    -10.85054272 </i>
    <i name="e_0_energy">    -10.85054272 </i>
   </energy>
  </scstep>
  <scstep>
   <time name="dav">    0.54    0.55</time>
   <time name="total">    0.57    0.58</time>
   <energy>
    <i name="e_fr_energy">    -10.85013085 </i>
    <i name="e_wo_entrp">    -10.85013085 </i>
    <i name="e_0_energy">    -10.85013085 </i>
   </energy>
  </scstep>
  <scstep>
   <time name="dav">    0.56    0.56</time>
   <time name="total">    0.59    0.61</time>
   <energy>
    <i name="e_fr_energy">    -10.84991545 </i>
    <i name="e_wo_entrp">    -10.84991544 </i>
    <i name="e_0_energy">    -10.84991544 </i>
   </energy>
  </scstep>
  <scstep>
   <time name="dav">    0.63    0.63</time>
   <time name="total">    0.67    0.67</time>
   <energy>
    <i name="e_fr_energy">    -10.84991241 </i>
    <i name="e_wo_entrp">    -10.84991240 </i>
    <i name="e_0_energy">    -10.84991240 </i>
   </energy>
  </scstep>
  <scstep>
   <time name="dav">    0.58    0.58</time>
   <time name="total">    0.59    0.60</time>
   <energy>
    <i name="alphaZ">      3.29365931 </i>
    <i name="ewald">   -226.95602114 </i>
    <i name="hartreedc">    -15.16869378 </i>
    <i name="XCdc">    -18.05995241 </i>
    <i name="pawpsdc">     73.61261670 </i>
    <i name="pawaedc">    -38.63141995 </i>
    <i name="eentropy">     -0.00000001 </i>
    <i name="bandstr">      4.92738588 </i>
    <i name="atom">    206.13251344 </i>
    <i name="e_fr_energy">    -10.84991196 </i>
    <i name="e_wo_entrp">    -10.84991195 </i>
    <i name="e_0_energy">    -10.84991195 </i>
   </energy>
  </scstep>
  <structure>
   <crystal>
    <varray name="basis" >
     <v>       0.00000000       2.73423004       2.73423004 </v>
     <v>       2.73423004       0.00000000       2.73423004 </v>
     <v>       2.73423004       2.73423004       0.00000000 </v>
    </varray>
    <i name="volume">     40.88228352 </i>
    <varray name="rec_basis" >
     <v>      -0.18286684       0.18286684       0.18286684 </v>
     <v>       0.18286684      -0.18286684       0.18286684 </v>
     <v>       0.18286684       0.18286684      -0.18286684 </v>
    </varray>
   </crystal>
   <varray name="positions" >
    <v>       0.87500000       0.87500000       0.87500000 </v>
    <v>       0.12500000       0.12500000       0.12500000 </v>
   </varray>
  </structure>
  <varray name="forces" >
   <v>      -0.00000000      -0.00000000      -0.00000000 </v>
   <v>       0.00000000       0.00000000       0.00000000 </v>
  </varray>
  <varray name="stress" >
   <v>       0.06113033      -0.00000000      -0.00000000 </v>
   <v>       0.00000000       0.06113033       0.00000000 </v>
   <v>      -0.00000000      -0.00000000       0.06113033 </v>
  </varray>
  <energy>
   <i name="e_fr_energy">    -10.84991196 </i>
   <i name="e_wo_entrp">    -10.84991195 </i>
   <i name="e_0_energy">     -0.00000001 </i>
  </energy>
  <time name="totalsc">    3.59    3.66</time>
 </calculation>
 <calculation>
  <scstep>
   <time name="dav">    0.43    0.43</time>
   <time name="total">    0.46    0.48</time>
   <energy>
    <i name="alphaZ">      3.29342755 </i>
    <i name="ewald">   -226.95069781 </i>
    <i name="hartreedc">    -15.16863235 </i>
    <i name="XCdc">    -18.06022832 </i>
    <i name="pawpsdc">     73.61612146 </i>
    <i name="pawaedc">    -38.63498251 </i>
    <i name="eentropy">     -0.00000001 </i>
    <i name="bandstr">      4.92256638 </i>
    <i name="atom">    206.13251344 </i>
    <i name="e_fr_energy">    -10.84991217 </i>
    <i name="e_wo_entrp">    -10.84991216 </i>
    <i name="e_0_energy">    -10.84991217 </i>
   </energy>
  </scstep>
  <scstep>
   <time name="dav">    0.26    0.26</time>
   <time name="total">    0.29    0.29</time>
   <energy>
    <i name="e_fr_energy">    -10.84991214 </i>
    <i name="e_wo_entrp">    -10.84991213 </i>
    <i name="e_0_energy">    -10.84991214 </i>
   </energy>
  </scstep>
  <scstep>
   <time name="dav">    0.26    0.26</time>
   <time name="total">    0.30    0.30</time>
   <energy>
    <i name="e_fr_energy">    -10.84991210 </i>
    <i name="e_wo_entrp">    -10.84991209 </i>
    <i name="e_0_energy">    -10.84991209 </i>
   </energy>
  </scstep>
  <scstep>
   <time name="dav">    0.24    0.25</time>
   <time name="total">    0.25    0.26</time>
   <energy>
    <i name="alphaZ">      3.29342755 </i>
    <i name="ewald">   -226.95069781 </i>
    <i name="hartreedc">    -15.16986633 </i>
    <i name="XCdc">    -18.06018868 </i>
    <i name="pawpsdc">     73.61421485 </i>
    <i name="pawaedc">    -38.63303454 </i>
    <i name="eentropy">     -0.00000001 </i>
    <i name="bandstr">      4.92371946 </i>
    <i name="atom">    206.13251344 </i>
    <i name="e_fr_energy">    -10.84991208 </i>
    <i name="e_wo_entrp">    -10.84991207 </i>
    <i name="e_0_energy">    -10.84991208 </i>
   </energy>
  </scstep>
  <structure>
   <crystal>
    <varray name="basis" >
     <v>       0.00000000       2.73429417       2.73429417 </v>
     <v>       2.73429417       0.00000000       2.73429417 </v>
     <v>       2.73429417       2.73429417       0.00000000 </v>
    </varray>
    <i name="volume">     40.88516038 </i>
    <varray name="rec_basis" >
     <v>      -0.18286255       0.18286255       0.18286255 </v>
     <v>       0.18286255      -0.18286255       0.18286255 </v>
     <v>       0.18286255       0.18286255      -0.18286255 </v>
    </varray>
   </crystal>
   <varray name="positions" >
    <v>       0.87500000       0.87500000       0.87500000 </v>
    <v>       0.12500000       0.12500000       0.12500000 </v>
   </varray>
  </structure>
  <varray name="forces" >
   <v>       0.00000000      -0.00000000      -0.00000000 </v>
   <v>      -0.00000000       0.00000000       0.00000000 </v>
  </varray>
  <varray name="stress" >
   <v>      -0.00202594      -0.00000000      -0.00000000 </v>
   <v>       0.00000000      -0.00202594      -0.00000000 </v>
   <v>       0.00000000       0.00000000      -0.00202594 </v>
  </varray>
  <energy>
   <i name="e_fr_energy">    -10.84991208 </i>
   <i name="e_wo_entrp">    -10.84991208 </i>
   <i name="e_0_energy">     -0.00000001 </i>
  </energy>
  <time name="totalsc">    1.99    2.06</time>
  <eigenvalues>
   <array>
    <dimension dim="1">band</dimension>
    <dimension dim="2">kpoint</dimension>
    <dimension dim="3">spin</dimension>
    <field>eigene</field>
    <field>occ</field>
    <set>
     <set comment="spin 1">
      <set comment="kpoint 1">
       <r>   -6.1986    1.0000 </r>
       <r>    5.6165    1.0000 </r>
       <r>    5.6165    1.0000 </r>
       <r>    5.6165    1.0000 </r>
       <r>    8.1736    0.0000 </r>
       <r>    8.1736    0.0000 </r>
       <r>    8.1736    0.0000 </r>
       <r>    8.7513    0.0000 </r>
       <r>   13.3259    0.0000 </r>
       <r>   13.3259    0.0000 </r>
       <r>   13.4948    0.0000 </r>
       <r>   16.7994    0.0000 </r>
       <r>   16.7994    0.0000 </r>
       <r>   16.7994    0.0000 </r>
       <r>   20.8915    0.0000 </r>
       <r>   28.4718    0.0000 </r>
      </set>
      <set comment="kpoint 2">
       <r>   -6.1413    1.0000 </r>
       <r>    5.0236    1.0000 </r>
       <r>    5.5235    1.0000 </r>
       <r>    5.5235    1.0000 </r>
       <r>    8.2090    0.0000 </r>
       <r>    8.3104    0.0000 </r>
       <r>    8.3104    0.0000 </r>
       <r>    9.2121    0.0000 </r>
       <r>   13.1444    0.0000 </r>
       <r>   13.1444    0.0000 </r>
       <r>   13.7430    0.0000 </r>
       <r>   16.5816    0.0000 </r>
       <r>   17.1678    0.0000 </r>
       <r>   17.1678    0.0000 </r>
       <r>   21.2844    0.0000 </r>
       <r>   27.8171    0.0000 </r>
      </set>
      <set comment="kpoint 3">
       <r>   -5.9706    1.0000 </r>
       <r>    3.8728    1.0000 </r>
       <r>    5.3031    1.0000 </r>
       <r>    5.3031    1.0000 </r>
       <r>    8.0304    0.0000 </r>
       <r>    8.6337    0.0000 </r>
       <r>    8.6337    0.0000 </r>
       <r>   10.2973    0.0000 </r>
       <r>   12.8159    0.0000 </r>
       <r>   12.8159    0.0000 </r>
       <r>   14.3522    0.0000 </r>
       <r>   16.2125    0.0000 </r>
       <r>   18.0776    0.0000 </r>
       <r>   18.0776    0.0000 </r>
       <r>   22.2438    0.0000 </r>
       <r>   26.2451    0.0000 </r>
      </set>
      <set comment="kpoint 4">
       <r>   -5.6905    1.0000 </r>
       <r>    2.6347    1.0000 </r>
       <r>    5.0490    1.0000 </r>
       <r>    5.0490    1.0000 </r>
       <r>    7.7695    0.0000 </r>
       <r>    8.9613    0.0000 </r>
       <r>    8.9613    0.0000 </r>
       <r>   11.4958    0.0000 </r>
       <r>   12.6654    0.0000 </r>
       <r>   12.6654    0.0000 </r>
       <r>   14.6932    0.0000 </r>
       <r>   16.4749    0.0000 </r>
       <r>   19.2533    0.0000 </r>
       <r>   19.2533    0.0000 </r>
       <r>   23.3261    0.0000 </r>
       <r>   24.4784    0.0000 </r>
      </set>
      <set comment="kpoint 5">
       <r>   -5.3098    1.0000 </r>
       <r>    1.4390    1.0000 </r>
       <r>    4.8175    1.0000 </r>
       <r>    4.8175    1.0000 </r>
       <r>    7.5165    0.0000 </r>
       <r>    9.1299    0.0000 </r>
       <r>    9.1299    0.0000 </r>
       <r>   12.6414    0.0000 </r>
       <r>   12.9063    0.0000 </r>
       <r>   12.9063    0.0000 </r>
       <r>   14.4890    0.0000 </r>
       <r>   17.6736    0.0000 </r>
       <r>   20.3564    0.0000 </r>
       <r>   20.3564    0.0000 </r>
       <r>   22.9996    0.0000 </r>
       <r>   22.9996    0.0000 </r>
      </set>
      <set comment="kpoint 6">
       <r>   -4.8484    1.0000 </r>
       <r>    0.3470    1.0000 </r>
       <r>    4.6341    1.0000 </r>
       <r>    4.6341    1.0000 </r>
       <r>    7.3096    0.0000 </r>
       <r>    9.1202    0.0000 </r>
       <r>    9.1202    0.0000 </r>
       <r>   13.4008    0.0000 </r>
       <r>   13.5715    0.0000 </r>
       <r>   13.5715    0.0000 </r>
       <r>   14.5984    0.0000 </r>
       <r>   19.0459    0.0000 </r>
       <r>   20.0815    0.0000 </r>
       <r>   20.0815    0.0000 </r>
       <r>   22.2057    0.0000 </r>
       <r>   23.1269    0.0000 </r>
      </set>
      <set comment="kpoint 7">
       <r>   -4.3573    1.0000 </r>
       <r>   -0.5717    1.0000 </r>
       <r>    4.5090    1.0000 </r>
       <r>    4.5090    1.0000 </r>
       <r>    7.1660    0.0000 </r>
       <r>    9.0374    0.0000 </r>
       <r>    9.0374    0.0000 </r>
       <r>   13.4222    0.0000 </r>
       <r>   14.5535    0.0000 </r>
       <r>   14.5535    0.0000 </r>
       <r>   15.5304    0.0000 </r>
       <r>   18.6880    0.0000 </r>
       <r>   18.6880    0.0000 </r>
       <r>   19.3913    0.0000 </r>
       <r>   22.3899    0.0000 </r>
       <r>   24.5912    0.0000 </r>
      </set>
      <set comment="kpoint 8">
       <r>   -3.9796    1.0000 </r>
       <r>   -1.1653    1.0000 </r>
       <r>    4.4460    1.0000 </r>
       <r>    4.4460    1.0000 </r>
       <r>    7.0928    0.0000 </r>
       <r>    8.9749    0.0000 </r>
       <r>    8.9749    0.0000 </r>
       <r>   13.3326    0.0000 </r>
       <r>   15.7133    0.0000 </r>
       <r>   15.7133    0.0000 </r>
       <r>   16.5669    0.0000 </r>
       <r>   17.2691    0.0000 </r>
       <r>   17.2691    0.0000 </r>
       <r>   18.5782    0.0000 </r>
       <r>   24.0176    0.0000 </r>
       <r>   26.1537    0.0000 </r>
      </set>
      <set comment="kpoint 9">
       <r>   -6.1222    1.0000 </r>
       <r>    5.1327    1.0000 </r>
       <r>    5.3305    1.0000 </r>
       <r>    5.3305    1.0000 </r>
       <r>    7.9951    0.0000 </r>
       <r>    8.5537    0.0000 </r>
       <r>    8.5537    0.0000 </r>
       <r>    9.2124    0.0000 </r>
       <r>   12.7953    0.0000 </r>
       <r>   13.4108    0.0000 </r>
       <r>   13.8250    0.0000 </r>
       <r>   16.9329    0.0000 </r>
       <r>   16.9329    0.0000 </r>
       <r>   17.1656    0.0000 </r>
       <r>   21.4377    0.0000 </r>
       <r>   27.4832    0.0000 </r>
      </set>
      <set comment="kpoint 10">
       <r>   -5.9891    1.0000 </r>
       <r>    4.2092    1.0000 </r>
       <r>    5.0577    1.0000 </r>
       <r>    5.2232    1.0000 </r>
       <r>    7.9924    0.0000 </r>
       <r>    8.6178    0.0000 </r>
       <r>    8.9479    0.0000 </r>
       <r>   10.0054    0.0000 </r>
       <r>   12.3887    0.0000 </r>
       <r>   13.3463    0.0000 </r>
       <r>   14.3337    0.0000 </r>
       <r>   16.6164    0.0000 </r>
       <r>   17.4149    0.0000 </r>
       <r>   18.0288    0.0000 </r>
       <r>   22.2415    0.0000 </r>
       <r>   26.1371    0.0000 </r>
      </set>
      <set comment="kpoint 11">
       <r>   -5.7450    1.0000 </r>
       <r>    3.0231    1.0000 </r>
       <r>    4.7873    1.0000 </r>
       <r>    5.0079    1.0000 </r>
       <r>    8.0688    0.0000 </r>
       <r>    8.6154    0.0000 </r>
       <r>    9.3315    0.0000 </r>
       <r>   10.8848    0.0000 </r>
       <r>   12.3570    0.0000 </r>
       <r>   13.2322    0.0000 </r>
       <r>   14.9117    0.0000 </r>
       <r>   16.4687    0.0000 </r>
       <r>   18.3877    0.0000 </r>
       <r>   19.2354    0.0000 </r>
       <r>   23.3184    0.0000 </r>
       <r>   24.3667    0.0000 </r>
      </set>
      <set comment="kpoint 12">
       <r>   -5.3966    1.0000 </r>
       <r>    1.8290    1.0000 </r>
       <r>    4.5627    1.0000 </r>
       <r>    4.7376    1.0000 </r>
       <r>    7.9254    0.0000 </r>
       <r>    8.8038    0.0000 </r>
       <r>    9.5438    0.0000 </r>
       <r>   11.3708    0.0000 </r>
       <r>   13.0797    0.0000 </r>
       <r>   13.4033    0.0000 </r>
       <r>   14.8660    0.0000 </r>
       <r>   17.3129    0.0000 </r>
       <r>   19.5068    0.0000 </r>
       <r>   20.4888    0.0000 </r>
       <r>   22.7250    0.0000 </r>
       <r>   23.1727    0.0000 </r>
      </set>
      <set comment="kpoint 13">
       <r>   -4.9589    1.0000 </r>
       <r>    0.7095    1.0000 </r>
       <r>    4.4035    1.0000 </r>
       <r>    4.4782    1.0000 </r>
       <r>    7.7325    0.0000 </r>
       <r>    8.8983    0.0000 </r>
       <r>    9.5342    0.0000 </r>
       <r>   11.9364    0.0000 </r>
       <r>   13.9854    0.0000 </r>
       <r>   14.0187    0.0000 </r>
       <r>   14.7195    0.0000 </r>
       <r>   18.6223    0.0000 </r>
       <r>   19.7558    0.0000 </r>
       <r>   20.8235    0.0000 </r>
       <r>   22.2203    0.0000 </r>
       <r>   22.6125    0.0000 </r>
      </set>
      <set comment="kpoint 14">
       <r>   -4.4683    1.0000 </r>
       <r>   -0.2704    1.0000 </r>
       <r>    4.2601    1.0000 </r>
       <r>    4.3171    1.0000 </r>
       <r>    7.5773    0.0000 </r>
       <r>    8.8867    0.0000 </r>
       <r>    9.3994    0.0000 </r>
       <r>   12.7374    0.0000 </r>
       <r>   14.1630    0.0000 </r>
       <r>   14.9035    0.0000 </r>
       <r>   15.5711    0.0000 </r>
       <r>   18.4990    0.0000 </r>
       <r>   18.9377    0.0000 </r>
       <r>   20.3765    0.0000 </r>
       <r>   22.2188    0.0000 </r>
       <r>   23.4741    0.0000 </r>
      </set>
      <set comment="kpoint 15">
       <r>   -4.0265    1.0000 </r>
       <r>   -0.9955    1.0000 </r>
       <r>    4.0980    1.0000 </r>
       <r>    4.3043    1.0000 </r>
       <r>    7.4833    0.0000 </r>
       <r>    8.8757    0.0000 </r>
       <r>    9.2502    0.0000 </r>
       <r>   13.3813    0.0000 </r>
       <r>   14.4561    0.0000 </r>
       <r>   15.9857    0.0000 </r>
       <r>   16.6855    0.0000 </r>
       <r>   17.1014    0.0000 </r>
       <r>   17.8567    0.0000 </r>
       <r>   19.5675    0.0000 </r>
       <r>   23.3874    0.0000 </r>
       <r>   25.1569    0.0000 </r>
      </set>
      <set comment="kpoint 16">
       <r>   -3.8757    1.0000 </r>
       <r>   -1.2173    1.0000 </r>
       <r>    4.0003    1.0000 </r>
       <r>    4.3624    1.0000 </r>
       <r>    7.4584    0.0000 </r>
       <r>    8.9242    0.0000 </r>
       <r>    9.1471    0.0000 </r>
       <r>   13.5208    0.0000 </r>
       <r>   15.2604    0.0000 </r>
       <r>   15.5037    0.0000 </r>
       <r>   16.5908    0.0000 </r>
       <r>   17.5151    0.0000 </r>
       <r>   17.7439    0.0000 </r>
       <r>   18.7437    0.0000 </r>
       <r>   24.5061    0.0000 </r>
       <r>   25.4181    0.0000 </r>
      </set>
      <set comment="kpoint 17">
       <r>   -4.1572    1.0000 </r>
       <r>   -0.7930    1.0000 </r>
       <r>    3.9732    1.0000 </r>
       <r>    4.4860    1.0000 </r>
       <r>    7.5046    0.0000 </r>
       <r>    9.0426    0.0000 </r>
       <r>    9.1061    0.0000 </r>
       <r>   13.4915    0.0000 </r>
       <r>   14.2778    0.0000 </r>
       <r>   14.9385    0.0000 </r>
       <r>   16.7553    0.0000 </r>
       <r>   17.2379    0.0000 </r>
       <r>   18.9353    0.0000 </r>
       <r>   19.5407    0.0000 </r>
       <r>   22.7727    0.0000 </r>
       <r>   24.5295    0.0000 </r>
      </set>
      <set comment="kpoint 18">
       <r>   -4.6343    1.0000 </r>
       <r>    0.0373    1.0000 </r>
       <r>    4.0215    1.0000 </r>
       <r>    4.6674    1.0000 </r>
       <r>    7.6199    0.0000 </r>
       <r>    9.1030    0.0000 </r>
       <r>    9.2010    0.0000 </r>
       <r>   13.0822    0.0000 </r>
       <r>   13.2341    0.0000 </r>
       <r>   14.5395    0.0000 </r>
       <r>   15.5555    0.0000 </r>
       <r>   18.4769    0.0000 </r>
       <r>   19.7709    0.0000 </r>
       <r>   20.3889    0.0000 </r>
       <r>   22.0494    0.0000 </r>
       <r>   22.9411    0.0000 </r>
      </set>
      <set comment="kpoint 19">
       <r>   -5.1138    1.0000 </r>
       <r>    1.0718    1.0000 </r>
       <r>    4.1480    1.0000 </r>
       <r>    4.8953    1.0000 </r>
       <r>    7.7981    0.0000 </r>
       <r>    9.0626    0.0000 </r>
       <r>    9.3141    0.0000 </r>
       <r>   12.3263    0.0000 </r>
       <r>   12.4914    0.0000 </r>
       <r>   14.3959    0.0000 </r>
       <r>   14.7300    0.0000 </r>
       <r>   18.1272    0.0000 </r>
       <r>   19.8174    0.0000 </r>
       <r>   21.1972    0.0000 </r>
       <r>   21.7412    0.0000 </r>
       <r>   23.1681    0.0000 </r>
      </set>
      <set comment="kpoint 20">
       <r>   -5.5241    1.0000 </r>
       <r>    2.2195    1.0000 </r>
       <r>    4.3537    1.0000 </r>
       <r>    5.1496    1.0000 </r>
       <r>    8.0244    0.0000 </r>
       <r>    8.8846    0.0000 </r>
       <r>    9.2339    0.0000 </r>
       <r>   11.5896    0.0000 </r>
       <r>   12.1708    0.0000 </r>
       <r>   13.5401    0.0000 </r>
       <r>   14.9733    0.0000 </r>
       <r>   16.9076    0.0000 </r>
       <r>   19.0071    0.0000 </r>
       <r>   20.3322    0.0000 </r>
       <r>   22.7762    0.0000 </r>
       <r>   23.7750    0.0000 </r>
      </set>
      <set comment="kpoint 21">
       <r>   -5.8387    1.0000 </r>
       <r>    3.4061    1.0000 </r>
       <r>    4.6402    1.0000 </r>
       <r>    5.3906    1.0000 </r>
       <r>    8.2651    0.0000 </r>
       <r>    8.5823    0.0000 </r>
       <r>    8.8879    0.0000 </r>
       <r>   10.7752    0.0000 </r>
       <r>   12.2819    0.0000 </r>
       <r>   13.1597    0.0000 </r>
       <r>   14.7641    0.0000 </r>
       <r>   16.4366    0.0000 </r>
       <r>   17.8526    0.0000 </r>
       <r>   19.0885    0.0000 </r>
       <r>   22.8980    0.0000 </r>
       <r>   24.5017    0.0000 </r>
      </set>
      <set comment="kpoint 22">
       <r>   -6.0462    1.0000 </r>
       <r>    4.4610    1.0000 </r>
       <r>    5.0429    1.0000 </r>
       <r>    5.5440    1.0000 </r>
       <r>    8.3310    0.0000 </r>
       <r>    8.4315    0.0000 </r>
       <r>    8.4390    0.0000 </r>
       <r>    9.8397    0.0000 </r>
       <r>   12.6769    0.0000 </r>
       <r>   13.1866    0.0000 </r>
       <r>   14.1225    0.0000 </r>
       <r>   16.6491    0.0000 </r>
       <r>   17.0790    0.0000 </r>
       <r>   17.9714    0.0000 </r>
       <r>   21.8733    0.0000 </r>
       <r>   26.2698    0.0000 </r>
      </set>
      <set comment="kpoint 23">
       <r>   -5.8937    1.0000 </r>
       <r>    4.1274    1.0000 </r>
       <r>    4.7539    1.0000 </r>
       <r>    4.7539    1.0000 </r>
       <r>    7.5732    0.0000 </r>
       <r>    9.4095    0.0000 </r>
       <r>    9.4095    0.0000 </r>
       <r>    9.8829    0.0000 </r>
       <r>   12.0535    0.0000 </r>
       <r>   13.6653    0.0000 </r>
       <r>   14.6962    0.0000 </r>
       <r>   17.3294    0.0000 </r>
       <r>   17.3294    0.0000 </r>
       <r>   17.8316    0.0000 </r>
       <r>   22.9023    0.0000 </r>
       <r>   25.7600    0.0000 </r>
      </set>
      <set comment="kpoint 24">
       <r>   -5.6863    1.0000 </r>
       <r>    3.2535    1.0000 </r>
       <r>    4.4665    1.0000 </r>
       <r>    4.5358    1.0000 </r>
       <r>    7.5397    0.0000 </r>
       <r>    9.4247    0.0000 </r>
       <r>    9.8751    0.0000 </r>
       <r>   10.2192    0.0000 </r>
       <r>   12.3054    0.0000 </r>
       <r>   13.7493    0.0000 </r>
       <r>   15.3245    0.0000 </r>
       <r>   17.0987    0.0000 </r>
       <r>   17.8979    0.0000 </r>
       <r>   18.8556    0.0000 </r>
       <r>   23.8904    0.0000 </r>
       <r>   24.3120    0.0000 </r>
      </set>
      <set comment="kpoint 25">
       <r>   -5.3720    1.0000 </r>
       <r>    2.1626    1.0000 </r>
       <r>    4.2347    1.0000 </r>
       <r>    4.2505    1.0000 </r>
       <r>    7.7302    0.0000 </r>
       <r>    9.3387    0.0000 </r>
       <r>   10.1820    0.0000 </r>
       <r>   10.2674    0.0000 </r>
       <r>   13.2721    0.0000 </r>
       <r>   13.9164    0.0000 </r>
       <r>   15.6583    0.0000 </r>
       <r>   17.3263    0.0000 </r>
       <r>   18.8452    0.0000 </r>
       <r>   20.1739    0.0000 </r>
       <r>   22.6257    0.0000 </r>
       <r>   23.1647    0.0000 </r>
      </set>
      <set comment="kpoint 26">
       <r>   -4.9621    1.0000 </r>
       <r>    1.0727    1.0000 </r>
       <r>    3.9240    1.0000 </r>
       <r>    4.0772    1.0000 </r>
       <r>    7.8268    0.0000 </r>
       <r>    9.3539    0.0000 </r>
       <r>   10.2320    0.0000 </r>
       <r>   10.4790    0.0000 </r>
       <r>   14.4318    0.0000 </r>
       <r>   14.4552    0.0000 </r>
       <r>   15.4344    0.0000 </r>
       <r>   18.3717    0.0000 </r>
       <r>   19.3981    0.0000 </r>
       <r>   20.8598    0.0000 </r>
       <r>   21.6524    0.0000 </r>
       <r>   22.6137    0.0000 </r>
      </set>
      <set comment="kpoint 27">
       <r>   -4.4828    1.0000 </r>
       <r>    0.0726    1.0000 </r>
       <r>    3.6204    1.0000 </r>
       <r>    4.0017    1.0000 </r>
       <r>    7.7996    0.0000 </r>
       <r>    9.2941    0.0000 </r>
       <r>   10.0949    0.0000 </r>
       <r>   11.1802    0.0000 </r>
       <r>   14.9904    0.0000 </r>
       <r>   15.2949    0.0000 </r>
       <r>   15.8323    0.0000 </r>
       <r>   18.3690    0.0000 </r>
       <r>   18.8358    0.0000 </r>
       <r>   20.7843    0.0000 </r>
       <r>   22.5493    0.0000 </r>
       <r>   23.0799    0.0000 </r>
      </set>
      <set comment="kpoint 28">
       <r>   -4.0048    1.0000 </r>
       <r>   -0.7390    1.0000 </r>
       <r>    3.3708    1.0000 </r>
       <r>    4.0098    1.0000 </r>
       <r>    7.7692    0.0000 </r>
       <r>    9.2175    0.0000 </r>
       <r>    9.8981    0.0000 </r>
       <r>   12.1887    0.0000 </r>
       <r>   14.7542    0.0000 </r>
       <r>   16.2869    0.0000 </r>
       <r>   16.9776    0.0000 </r>
       <r>   17.0283    0.0000 </r>
       <r>   17.9524    0.0000 </r>
       <r>   21.1720    0.0000 </r>
       <r>   22.9239    0.0000 </r>
       <r>   24.1194    0.0000 </r>
      </set>
      <set comment="kpoint 29">
       <r>   -3.7231    1.0000 </r>
       <r>   -1.1543    1.0000 </r>
       <r>    3.1915    1.0000 </r>
       <r>    4.0986    1.0000 </r>
       <r>    7.7961    0.0000 </r>
       <r>    9.1951    0.0000 </r>
       <r>    9.7212    0.0000 </r>
       <r>   13.2929    0.0000 </r>
       <r>   14.4824    0.0000 </r>
       <r>   15.3747    0.0000 </r>
       <r>   16.7065    0.0000 </r>
       <r>   17.8143    0.0000 </r>
       <r>   18.5063    0.0000 </r>
       <r>   20.0496    0.0000 </r>
       <r>   24.4446    0.0000 </r>
       <r>   24.8214    0.0000 </r>
      </set>
      <set comment="kpoint 30">
       <r>   -3.8787    1.0000 </r>
       <r>   -0.9281    1.0000 </r>
       <r>    3.0939    1.0000 </r>
       <r>    4.2616    1.0000 </r>
       <r>    7.8934    0.0000 </r>
       <r>    9.2480    0.0000 </r>
       <r>    9.5938    0.0000 </r>
       <r>   13.7262    0.0000 </r>
       <r>   14.0938    0.0000 </r>
       <r>   14.4666    0.0000 </r>
       <r>   16.4610    0.0000 </r>
       <r>   18.6128    0.0000 </r>
       <r>   19.2283    0.0000 </r>
       <r>   19.8063    0.0000 </r>
       <r>   22.8562    0.0000 </r>
       <r>   24.8000    0.0000 </r>
      </set>
      <set comment="kpoint 31">
       <r>   -4.3233    1.0000 </r>
       <r>   -0.2125    1.0000 </r>
       <r>    3.0880    1.0000 </r>
       <r>    4.4874    1.0000 </r>
       <r>    8.0527    0.0000 </r>
       <r>    9.3667    0.0000 </r>
       <r>    9.5026    0.0000 </r>
       <r>   12.8808    0.0000 </r>
       <r>   12.9980    0.0000 </r>
       <r>   15.0179    0.0000 </r>
       <r>   17.1858    0.0000 </r>
       <r>   17.3235    0.0000 </r>
       <r>   20.2237    0.0000 </r>
       <r>   20.7009    0.0000 </r>
       <r>   21.8230    0.0000 </r>
       <r>   23.1460    0.0000 </r>
      </set>
      <set comment="kpoint 32">
       <r>   -4.8134    1.0000 </r>
       <r>    0.7343    1.0000 </r>
       <r>    3.1865    1.0000 </r>
       <r>    4.7578    1.0000 </r>
       <r>    8.2555    0.0000 </r>
       <r>    9.3813    0.0000 </r>
       <r>    9.4844    0.0000 </r>
       <r>   11.9820    0.0000 </r>
       <r>   12.2000    0.0000 </r>
       <r>   15.4026    0.0000 </r>
       <r>   16.0570    0.0000 </r>
       <r>   17.9541    0.0000 </r>
       <r>   19.4674    0.0000 </r>
       <r>   21.0833    0.0000 </r>
       <r>   21.8546    0.0000 </r>
       <r>   23.1870    0.0000 </r>
      </set>
      <set comment="kpoint 33">
       <r>   -5.2495    1.0000 </r>
       <r>    1.7701    1.0000 </r>
       <r>    3.4180    1.0000 </r>
       <r>    5.0411    1.0000 </r>
       <r>    8.4717    0.0000 </r>
       <r>    9.1353    0.0000 </r>
       <r>    9.4093    0.0000 </r>
       <r>   11.3656    0.0000 </r>
       <r>   11.8315    0.0000 </r>
       <r>   14.8148    0.0000 </r>
       <r>   15.7161    0.0000 </r>
       <r>   17.2641    0.0000 </r>
       <r>   19.0545    0.0000 </r>
       <r>   21.1264    0.0000 </r>
       <r>   21.4805    0.0000 </r>
       <r>   24.0004    0.0000 </r>
      </set>
      <set comment="kpoint 34">
       <r>   -5.5961    1.0000 </r>
       <r>    2.7311    1.0000 </r>
       <r>    3.8725    1.0000 </r>
       <r>    5.2810    1.0000 </r>
       <r>    8.5988    0.0000 </r>
       <r>    8.8019    0.0000 </r>
       <r>    9.0358    0.0000 </r>
       <r>   11.1126    0.0000 </r>
       <r>   11.9046    0.0000 </r>
       <r>   13.7808    0.0000 </r>
       <r>   15.4363    0.0000 </r>
       <r>   16.7781    0.0000 </r>
       <r>   18.0694    0.0000 </r>
       <r>   20.2863    0.0000 </r>
       <r>   22.6956    0.0000 </r>
       <r>   23.7950    0.0000 </r>
      </set>
      <set comment="kpoint 35">
       <r>   -5.5155    1.0000 </r>
       <r>    2.9820    1.0000 </r>
       <r>    4.1622    1.0000 </r>
       <r>    4.1622    1.0000 </r>
       <r>    7.0930    0.0000 </r>
       <r>    9.4700    0.0000 </r>
       <r>   10.4579    0.0000 </r>
       <r>   10.4579    0.0000 </r>
       <r>   12.5561    0.0000 </r>
       <r>   14.0890    0.0000 </r>
       <r>   15.9019    0.0000 </r>
       <r>   17.9644    0.0000 </r>
       <r>   17.9644    0.0000 </r>
       <r>   18.5831    0.0000 </r>
       <r>   24.0132    0.0000 </r>
       <r>   24.0132    0.0000 </r>
      </set>
      <set comment="kpoint 36">
       <r>   -5.2362    1.0000 </r>
       <r>    2.2161    1.0000 </r>
       <r>    3.8539    1.0000 </r>
       <r>    3.9152    1.0000 </r>
       <r>    7.0840    0.0000 </r>
       <r>    9.1159    0.0000 </r>
       <r>   10.7286    0.0000 </r>
       <r>   10.9170    0.0000 </r>
       <r>   13.4235    0.0000 </r>
       <r>   14.3493    0.0000 </r>
       <r>   16.5081    0.0000 </r>
       <r>   17.9121    0.0000 </r>
       <r>   18.5522    0.0000 </r>
       <r>   19.6698    0.0000 </r>
       <r>   22.6344    0.0000 </r>
       <r>   22.9778    0.0000 </r>
      </set>
      <set comment="kpoint 37">
       <r>   -4.8570    1.0000 </r>
       <r>    1.2872    1.0000 </r>
       <r>    3.4509    1.0000 </r>
       <r>    3.7454    1.0000 </r>
       <r>    7.2959    0.0000 </r>
       <r>    9.1327    0.0000 </r>
       <r>   10.6443    0.0000 </r>
       <r>   11.0969    0.0000 </r>
       <r>   14.6625    0.0000 </r>
       <r>   14.8369    0.0000 </r>
       <r>   16.5277    0.0000 </r>
       <r>   18.4728    0.0000 </r>
       <r>   19.0966    0.0000 </r>
       <r>   20.5956    0.0000 </r>
       <r>   21.4338    0.0000 </r>
       <r>   22.3184    0.0000 </r>
      </set>
      <set comment="kpoint 38">
       <r>   -4.3965    1.0000 </r>
       <r>    0.3531    1.0000 </r>
       <r>    3.0397    1.0000 </r>
       <r>    3.6620    1.0000 </r>
       <r>    7.4037    0.0000 </r>
       <r>    9.6865    0.0000 </r>
       <r>   10.4774    0.0000 </r>
       <r>   11.0128    0.0000 </r>
       <r>   15.6684    0.0000 </r>
       <r>   15.9059    0.0000 </r>
       <r>   16.2428    0.0000 </r>
       <r>   18.2956    0.0000 </r>
       <r>   18.9479    0.0000 </r>
       <r>   20.5963    0.0000 </r>
       <r>   21.9018    0.0000 </r>
       <r>   23.4021    0.0000 </r>
      </set>
      <set comment="kpoint 39">
       <r>   -3.9038    1.0000 </r>
       <r>   -0.4762    1.0000 </r>
       <r>    2.6850    1.0000 </r>
       <r>    3.6679    1.0000 </r>
       <r>    7.4380    0.0000 </r>
       <r>   10.3171    0.0000 </r>
       <r>   10.6471    0.0000 </r>
       <r>   10.8075    0.0000 </r>
       <r>   15.6302    0.0000 </r>
       <r>   16.5643    0.0000 </r>
       <r>   17.0553    0.0000 </r>
       <r>   17.3201    0.0000 </r>
       <r>   18.1927    0.0000 </r>
       <r>   21.7931    0.0000 </r>
       <r>   23.2530    0.0000 </r>
       <r>   23.5600    0.0000 </r>
      </set>
      <set comment="kpoint 40">
       <r>   -3.5231    1.0000 </r>
       <r>   -1.0264    1.0000 </r>
       <r>    2.4151    1.0000 </r>
       <r>    3.7614    1.0000 </r>
       <r>    7.5152    0.0000 </r>
       <r>   10.2119    0.0000 </r>
       <r>   10.5879    0.0000 </r>
       <r>   11.8202    0.0000 </r>
       <r>   14.8996    0.0000 </r>
       <r>   15.3341    0.0000 </r>
       <r>   17.3554    0.0000 </r>
       <r>   18.1252    0.0000 </r>
       <r>   18.7775    0.0000 </r>
       <r>   21.8754    0.0000 </r>
       <r>   23.8418    0.0000 </r>
       <r>   24.5196    0.0000 </r>
      </set>
      <set comment="kpoint 41">
       <r>   -3.5356    1.0000 </r>
       <r>   -1.0053    1.0000 </r>
       <r>    2.2471    1.0000 </r>
       <r>    3.9367    1.0000 </r>
       <r>    7.6752    0.0000 </r>
       <r>   10.1637    0.0000 </r>
       <r>   10.3973    0.0000 </r>
       <r>   13.1116    0.0000 </r>
       <r>   13.8868    0.0000 </r>
       <r>   14.0109    0.0000 </r>
       <r>   17.1330    0.0000 </r>
       <r>   19.5371    0.0000 </r>
       <r>   20.0284    0.0000 </r>
       <r>   20.5594    0.0000 </r>
       <r>   22.6433    0.0000 </r>
       <r>   24.9839    0.0000 </r>
      </set>
      <set comment="kpoint 42">
       <r>   -3.9270    1.0000 </r>
       <r>   -0.4335    1.0000 </r>
       <r>    2.2001    1.0000 </r>
       <r>    4.1822    1.0000 </r>
       <r>    7.9154    0.0000 </r>
       <r>   10.1696    0.0000 </r>
       <r>   10.2242    0.0000 </r>
       <r>   12.7590    0.0000 </r>
       <r>   12.8822    0.0000 </r>
       <r>   14.4511    0.0000 </r>
       <r>   17.2715    0.0000 </r>
       <r>   19.1636    0.0000 </r>
       <r>   20.4278    0.0000 </r>
       <r>   21.0093    0.0000 </r>
       <r>   21.7020    0.0000 </r>
       <r>   23.6385    0.0000 </r>
      </set>
      <set comment="kpoint 43">
       <r>   -4.4187    1.0000 </r>
       <r>    0.3728    1.0000 </r>
       <r>    2.3131    1.0000 </r>
       <r>    4.4774    1.0000 </r>
       <r>    8.2052    0.0000 </r>
       <r>    9.9853    0.0000 </r>
       <r>   10.1651    0.0000 </r>
       <r>   11.7731    0.0000 </r>
       <r>   12.0798    0.0000 </r>
       <r>   15.6119    0.0000 </r>
       <r>   17.5310    0.0000 </r>
       <r>   17.8402    0.0000 </r>
       <r>   19.2649    0.0000 </r>
       <r>   21.5594    0.0000 </r>
       <r>   22.2822    0.0000 </r>
       <r>   23.0350    0.0000 </r>
      </set>
      <set comment="kpoint 44">
       <r>   -4.8749    1.0000 </r>
       <r>    1.1700    1.0000 </r>
       <r>    2.6832    1.0000 </r>
       <r>    4.7855    1.0000 </r>
       <r>    8.4678    0.0000 </r>
       <r>    9.5824    0.0000 </r>
       <r>    9.8864    0.0000 </r>
       <r>   11.2739    0.0000 </r>
       <r>   11.7482    0.0000 </r>
       <r>   16.2199    0.0000 </r>
       <r>   16.2411    0.0000 </r>
       <r>   17.4465    0.0000 </r>
       <r>   19.2708    0.0000 </r>
       <r>   20.4257    0.0000 </r>
       <r>   22.4117    0.0000 </r>
       <r>   23.7181    0.0000 </r>
      </set>
      <set comment="kpoint 45">
       <r>   -4.9917    1.0000 </r>
       <r>    1.8026    1.0000 </r>
       <r>    3.6495    1.0000 </r>
       <r>    3.6495    1.0000 </r>
       <r>    6.6729    0.0000 </r>
       <r>    8.5116    0.0000 </r>
       <r>   11.5973    0.0000 </r>
       <r>   11.5973    0.0000 </r>
       <r>   13.8266    0.0000 </r>
       <r>   14.6811    0.0000 </r>
       <r>   17.2635    0.0000 </r>
       <r>   18.7160    0.0000 </r>
       <r>   18.7160    0.0000 </r>
       <r>   19.4926    0.0000 </r>
       <r>   22.5017    0.0000 </r>
       <r>   22.5017    0.0000 </r>
      </set>
      <set comment="kpoint 46">
       <r>   -4.6444    1.0000 </r>
       <r>    1.1232    1.0000 </r>
       <r>    3.3020    1.0000 </r>
       <r>    3.4606    1.0000 </r>
       <r>    6.7154    0.0000 </r>
       <r>    8.2092    0.0000 </r>
       <r>   11.8757    0.0000 </r>
       <r>   12.0134    0.0000 </r>
       <r>   14.8126    0.0000 </r>
       <r>   15.1361    0.0000 </r>
       <r>   17.6362    0.0000 </r>
       <r>   18.9497    0.0000 </r>
       <r>   18.9956    0.0000 </r>
       <r>   20.2654    0.0000 </r>
       <r>   21.4987    0.0000 </r>
       <r>   22.0445    0.0000 </r>
      </set>
      <set comment="kpoint 47">
       <r>   -4.2080    1.0000 </r>
       <r>    0.3634    1.0000 </r>
       <r>    2.7931    1.0000 </r>
       <r>    3.3594    1.0000 </r>
       <r>    6.9256    0.0000 </r>
       <r>    8.4070    0.0000 </r>
       <r>   11.8110    0.0000 </r>
       <r>   12.0654    0.0000 </r>
       <r>   15.9415    0.0000 </r>
       <r>   16.1174    0.0000 </r>
       <r>   17.2127    0.0000 </r>
       <r>   18.2861    0.0000 </r>
       <r>   19.5154    0.0000 </r>
       <r>   20.2638    0.0000 </r>
       <r>   21.5634    0.0000 </r>
       <r>   22.9598    0.0000 </r>
      </set>
      <set comment="kpoint 48">
       <r>   -3.7160    1.0000 </r>
       <r>   -0.3781    1.0000 </r>
       <r>    2.2925    1.0000 </r>
       <r>    3.3502    1.0000 </r>
       <r>    7.0204    0.0000 </r>
       <r>    9.1725    0.0000 </r>
       <r>   11.6668    0.0000 </r>
       <r>   11.8956    0.0000 </r>
       <r>   16.3306    0.0000 </r>
       <r>   16.7833    0.0000 </r>
       <r>   17.1403    0.0000 </r>
       <r>   17.5437    0.0000 </r>
       <r>   18.9864    0.0000 </r>
       <r>   21.4041    0.0000 </r>
       <r>   22.4681    0.0000 </r>
       <r>   24.0831    0.0000 </r>
      </set>
      <set comment="kpoint 49">
       <r>   -3.2701    1.0000 </r>
       <r>   -0.9664    1.0000 </r>
       <r>    1.8922    1.0000 </r>
       <r>    3.4327    1.0000 </r>
       <r>    7.1136    0.0000 </r>
       <r>   10.2569    0.0000 </r>
       <r>   11.5455    0.0000 </r>
       <r>   11.6582    0.0000 </r>
       <r>   15.2185    0.0000 </r>
       <r>   15.3825    0.0000 </r>
       <r>   18.3849    0.0000 </r>
       <r>   18.5525    0.0000 </r>
       <r>   18.9346    0.0000 </r>
       <r>   22.8582    0.0000 </r>
       <r>   23.1405    0.0000 </r>
       <r>   23.6976    0.0000 </r>
      </set>
      <set comment="kpoint 50">
       <r>   -3.1441    1.0000 </r>
       <r>   -1.1137    1.0000 </r>
       <r>    1.6333    1.0000 </r>
       <r>    3.6023    1.0000 </r>
       <r>    7.2873    0.0000 </r>
       <r>   11.2341    0.0000 </r>
       <r>   11.4158    0.0000 </r>
       <r>   11.7489    0.0000 </r>
       <r>   13.9767    0.0000 </r>
       <r>   14.0371    0.0000 </r>
       <r>   18.4508    0.0000 </r>
       <r>   19.8099    0.0000 </r>
       <r>   20.1695    0.0000 </r>
       <r>   22.2517    0.0000 </r>
       <r>   22.6093    0.0000 </r>
       <r>   23.3712    0.0000 </r>
      </set>
      <set comment="kpoint 51">
       <r>   -3.4680    1.0000 </r>
       <r>   -0.7077    1.0000 </r>
       <r>    1.5576    1.0000 </r>
       <r>    3.8487    1.0000 </r>
       <r>    7.5524    0.0000 </r>
       <r>   11.1365    0.0000 </r>
       <r>   11.2763    0.0000 </r>
       <r>   12.6651    0.0000 </r>
       <r>   12.9235    0.0000 </r>
       <r>   13.1238    0.0000 </r>
       <r>   18.5196    0.0000 </r>
       <r>   20.3294    0.0000 </r>
       <r>   20.8664    0.0000 </r>
       <r>   21.2608    0.0000 </r>
       <r>   21.7954    0.0000 </r>
       <r>   23.3930    0.0000 </r>
      </set>
      <set comment="kpoint 52">
       <r>   -3.9513    1.0000 </r>
       <r>   -0.1165    1.0000 </r>
       <r>    1.7495    1.0000 </r>
       <r>    4.1525    1.0000 </r>
       <r>    7.8844    0.0000 </r>
       <r>   10.6633    0.0000 </r>
       <r>   11.0029    0.0000 </r>
       <r>   11.8596    0.0000 </r>
       <r>   12.2509    0.0000 </r>
       <r>   14.4781    0.0000 </r>
       <r>   18.4529    0.0000 </r>
       <r>   19.1500    0.0000 </r>
       <r>   19.4057    0.0000 </r>
       <r>   22.2986    0.0000 </r>
       <r>   22.5210    0.0000 </r>
       <r>   22.7540    0.0000 </r>
      </set>
      <set comment="kpoint 53">
       <r>   -4.3286    1.0000 </r>
       <r>    0.6264    1.0000 </r>
       <r>    3.2496    1.0000 </r>
       <r>    3.2496    1.0000 </r>
       <r>    6.3751    0.0000 </r>
       <r>    7.6383    0.0000 </r>
       <r>   12.7899    0.0000 </r>
       <r>   12.7899    0.0000 </r>
       <r>   15.2301    0.0000 </r>
       <r>   15.4407    0.0000 </r>
       <r>   18.5404    0.0000 </r>
       <r>   18.9734    0.0000 </r>
       <r>   18.9734    0.0000 </r>
       <r>   20.6266    0.0000 </r>
       <r>   21.6618    0.0000 </r>
       <r>   21.8708    0.0000 </r>
      </set>
      <set comment="kpoint 54">
       <r>   -3.9190    1.0000 </r>
       <r>    0.0113    1.0000 </r>
       <r>    2.9058    1.0000 </r>
       <r>    3.1258    1.0000 </r>
       <r>    6.4782    0.0000 </r>
       <r>    7.4630    0.0000 </r>
       <r>   13.0918    0.0000 </r>
       <r>   13.1481    0.0000 </r>
       <r>   16.0931    0.0000 </r>
       <r>   16.2189    0.0000 </r>
       <r>   17.9772    0.0000 </r>
       <r>   18.3137    0.0000 </r>
       <r>   19.6491    0.0000 </r>
       <r>   20.7237    0.0000 </r>
       <r>   21.1047    0.0000 </r>
       <r>   22.4562    0.0000 </r>
      </set>
      <set comment="kpoint 55">
       <r>   -3.4382    1.0000 </r>
       <r>   -0.6108    1.0000 </r>
       <r>    2.3494    1.0000 </r>
       <r>    3.0949    1.0000 </r>
       <r>    6.6621    0.0000 </r>
       <r>    7.8999    0.0000 </r>
       <r>   13.0471    0.0000 </r>
       <r>   13.0972    0.0000 </r>
       <r>   16.7247    0.0000 </r>
       <r>   16.9612    0.0000 </r>
       <r>   17.1870    0.0000 </r>
       <r>   17.6208    0.0000 </r>
       <r>   20.2911    0.0000 </r>
       <r>   20.7611    0.0000 </r>
       <r>   21.2727    0.0000 </r>
       <r>   23.4528    0.0000 </r>
      </set>
      <set comment="kpoint 56">
       <r>   -2.9555    1.0000 </r>
       <r>   -1.1549    1.0000 </r>
       <r>    1.8104    1.0000 </r>
       <r>    3.1580    1.0000 </r>
       <r>    6.7678    0.0000 </r>
       <r>    8.8662    0.0000 </r>
       <r>   12.8698    0.0000 </r>
       <r>   12.9156    0.0000 </r>
       <r>   15.4300    0.0000 </r>
       <r>   15.5147    0.0000 </r>
       <r>   18.5221    0.0000 </r>
       <r>   18.9386    0.0000 </r>
       <r>   20.1138    0.0000 </r>
       <r>   21.5368    0.0000 </r>
       <r>   21.7653    0.0000 </r>
       <r>   23.9147    0.0000 </r>
      </set>
      <set comment="kpoint 57">
       <r>   -2.7242    1.0000 </r>
       <r>   -1.3844    1.0000 </r>
       <r>    1.4278    1.0000 </r>
       <r>    3.3118    1.0000 </r>
       <r>    6.9376    0.0000 </r>
       <r>   10.0840    0.0000 </r>
       <r>   12.5597    0.0000 </r>
       <r>   12.7881    0.0000 </r>
       <r>   14.0716    0.0000 </r>
       <r>   14.1958    0.0000 </r>
       <r>   19.9512    0.0000 </r>
       <r>   19.9741    0.0000 </r>
       <r>   20.2238    0.0000 </r>
       <r>   21.7113    0.0000 </r>
       <r>   22.0712    0.0000 </r>
       <r>   22.8414    0.0000 </r>
      </set>
      <set comment="kpoint 58">
       <r>   -3.0017    1.0000 </r>
       <r>   -1.0969    1.0000 </r>
       <r>    1.3060    1.0000 </r>
       <r>    3.5477    1.0000 </r>
       <r>    7.2046    0.0000 </r>
       <r>   11.3940    0.0000 </r>
       <r>   12.0247    0.0000 </r>
       <r>   12.5878    0.0000 </r>
       <r>   12.9130    0.0000 </r>
       <r>   13.2690    0.0000 </r>
       <r>   19.8577    0.0000 </r>
       <r>   20.4322    0.0000 </r>
       <r>   21.0806    0.0000 </r>
       <r>   21.1865    0.0000 </r>
       <r>   22.0405    0.0000 </r>
       <r>   22.9714    0.0000 </r>
      </set>
      <set comment="kpoint 59">
       <r>   -3.5354    1.0000 </r>
       <r>   -0.5206    1.0000 </r>
       <r>    2.9773    1.0000 </r>
       <r>    2.9773    1.0000 </r>
       <r>    6.2345    0.0000 </r>
       <r>    6.9661    0.0000 </r>
       <r>   14.0175    0.0000 </r>
       <r>   14.0176    0.0000 </r>
       <r>   16.3662    0.0000 </r>
       <r>   16.6085    0.0000 </r>
       <r>   18.0794    0.0000 </r>
       <r>   18.0794    0.0000 </r>
       <r>   19.2215    0.0000 </r>
       <r>   20.1093    0.0000 </r>
       <r>   22.0085    0.0000 </r>
       <r>   22.7792    0.0000 </r>
      </set>
      <set comment="kpoint 60">
       <r>   -3.0717    1.0000 </r>
       <r>   -1.0805    1.0000 </r>
       <r>    2.6684    1.0000 </r>
       <r>    2.9215    1.0000 </r>
       <r>    6.3905    0.0000 </r>
       <r>    6.9462    0.0000 </r>
       <r>   14.3107    0.0000 </r>
       <r>   14.3359    0.0000 </r>
       <r>   16.9450    0.0000 </r>
       <r>   17.0592    0.0000 </r>
       <r>   17.2113    0.0000 </r>
       <r>   17.6602    0.0000 </r>
       <r>   19.6228    0.0000 </r>
       <r>   19.8017    0.0000 </r>
       <r>   22.1167    0.0000 </r>
       <r>   23.6914    0.0000 </r>
      </set>
      <set comment="kpoint 61">
       <r>   -2.5732    1.0000 </r>
       <r>   -1.5891    1.0000 </r>
       <r>    2.1307    1.0000 </r>
       <r>    2.9608    1.0000 </r>
       <r>    6.5256    0.0000 </r>
       <r>    7.6455    0.0000 </r>
       <r>   14.1462    0.0000 </r>
       <r>   14.3080    0.0000 </r>
       <r>   15.6138    0.0000 </r>
       <r>   15.7266    0.0000 </r>
[...]
       <r>   20.1996    0.0000 </r>
       <r>   20.2366    0.0000 </r>
       <r>   21.7359    0.0000 </r>
       <r>   22.6186    0.0000 </r>
       <r>   23.6542    0.0000 </r>
      </set>
      <set comment="kpoint 115">
       <r>   -2.4931    1.0000 </r>
       <r>   -1.5935    1.0000 </r>
       <r>    2.1718    1.0000 </r>
       <r>    2.3379    1.0000 </r>
       <r>    7.6823    0.0000 </r>
       <r>    7.8572    0.0000 </r>
       <r>   12.5743    0.0000 </r>
       <r>   13.7536    0.0000 </r>
       <r>   15.4136    0.0000 </r>
       <r>   16.6348    0.0000 </r>
       <r>   17.8305    0.0000 </r>
       <r>   18.9314    0.0000 </r>
       <r>   20.5707    0.0000 </r>
       <r>   21.7705    0.0000 </r>
       <r>   21.9285    0.0000 </r>
       <r>   23.2913    0.0000 </r>
      </set>
      <set comment="kpoint 116">
       <r>   -2.1959    1.0000 </r>
       <r>   -1.8417    1.0000 </r>
       <r>    1.7745    1.0000 </r>
       <r>    2.3829    1.0000 </r>
       <r>    7.9109    0.0000 </r>
       <r>    8.8908    0.0000 </r>
       <r>   12.2433    0.0000 </r>
       <r>   12.3959    0.0000 </r>
       <r>   15.4701    0.0000 </r>
       <r>   16.1453    0.0000 </r>
       <r>   18.2621    0.0000 </r>
       <r>   19.0643    0.0000 </r>
       <r>   21.5411    0.0000 </r>
       <r>   22.2744    0.0000 </r>
       <r>   22.3882    0.0000 </r>
       <r>   22.5696    0.0000 </r>
      </set>
      <set comment="kpoint 117">
       <r>   -3.1089    1.0000 </r>
       <r>   -0.8979    1.0000 </r>
       <r>    1.7275    1.0000 </r>
       <r>    2.6946    1.0000 </r>
       <r>    8.9993    0.0000 </r>
       <r>    9.3965    0.0000 </r>
       <r>    9.9885    0.0000 </r>
       <r>   13.3202    0.0000 </r>
       <r>   13.9739    0.0000 </r>
       <r>   15.6975    0.0000 </r>
       <r>   18.7527    0.0000 </r>
       <r>   19.9016    0.0000 </r>
       <r>   20.0070    0.0000 </r>
       <r>   21.0417    0.0000 </r>
       <r>   21.9649    0.0000 </r>
       <r>   24.1116    0.0000 </r>
      </set>
      <set comment="kpoint 118">
       <r>   -2.6877    1.0000 </r>
       <r>   -1.3193    1.0000 </r>
       <r>    1.5899    1.0000 </r>
       <r>    2.4785    1.0000 </r>
       <r>    9.2682    0.0000 </r>
       <r>    9.5915    0.0000 </r>
       <r>   10.5286    0.0000 </r>
       <r>   11.8912    0.0000 </r>
       <r>   14.3764    0.0000 </r>
       <r>   16.4179    0.0000 </r>
       <r>   17.9653    0.0000 </r>
       <r>   19.8822    0.0000 </r>
       <r>   20.5884    0.0000 </r>
       <r>   22.3363    0.0000 </r>
       <r>   22.5813    0.0000 </r>
       <r>   23.9232    0.0000 </r>
      </set>
      <set comment="kpoint 119">
       <r>   -2.3679    1.0000 </r>
       <r>   -1.6183    1.0000 </r>
       <r>    1.8020    1.0000 </r>
       <r>    2.1228    1.0000 </r>
       <r>    8.9912    0.0000 </r>
       <r>    9.1313    0.0000 </r>
       <r>   10.9298    0.0000 </r>
       <r>   12.0642    0.0000 </r>
       <r>   15.4068    0.0000 </r>
       <r>   16.5145    0.0000 </r>
       <r>   18.0135    0.0000 </r>
       <r>   19.0675    0.0000 </r>
       <r>   21.3251    0.0000 </r>
       <r>   22.4027    0.0000 </r>
       <r>   22.5404    0.0000 </r>
       <r>   23.7096    0.0000 </r>
      </set>
      <set comment="kpoint 120">
       <r>   -2.2582    1.0000 </r>
       <r>   -1.7059    1.0000 </r>
       <r>    1.6514    1.0000 </r>
       <r>    2.1416    1.0000 </r>
       <r>    9.2414    0.0000 </r>
       <r>   10.1291    0.0000 </r>
       <r>   10.7752    0.0000 </r>
       <r>   10.8260    0.0000 </r>
       <r>   15.4288    0.0000 </r>
       <r>   16.3476    0.0000 </r>
       <r>   18.1564    0.0000 </r>
       <r>   19.1411    0.0000 </r>
       <r>   21.3565    0.0000 </r>
       <r>   22.2282    0.0000 </r>
       <r>   23.6365    0.0000 </r>
       <r>   23.7378    0.0000 </r>
      </set>
     </set>
    </set>
   </array>
  </eigenvalues>
  <separator name="orbital magnetization" >
   <v name="MAGDIPOLOUT">      0.00000000      0.00000000      0.00000000</v>
  </separator>
  <dos>
   <i name="efermi">      5.91995167 </i>
   <total>
    <array>
     <dimension dim="1">gridpoints</dimension>
     <dimension dim="2">spin</dimension>
     <field>energy</field>
     <field>total</field>
     <field>integrated</field>
     <set>
      <set comment="spin 1">
       <r>    -7.9321     0.0000     0.0000 </r>
       <r>    -7.8050     0.0000     0.0000 </r>
       <r>    -7.6778     0.0000     0.0000 </r>
       <r>    -7.5507     0.0000     0.0000 </r>
       <r>    -7.4236     0.0000     0.0000 </r>
       <r>    -7.2965     0.0000     0.0000 </r>
       <r>    -7.1693     0.0000     0.0000 </r>
       <r>    -7.0422     0.0000     0.0000 </r>
       <r>    -6.9151     0.0000     0.0000 </r>
       <r>    -6.7880     0.0000     0.0000 </r>
       <r>    -6.6608     0.0000     0.0000 </r>
       <r>    -6.5337     0.0000     0.0000 </r>
       <r>    -6.4066     0.0000     0.0000 </r>
       <r>    -6.2795     0.0019     0.0002 </r>
       <r>    -6.1523     0.0323     0.0044 </r>
       <r>    -6.0252     0.1097     0.0183 </r>
       <r>    -5.8981     0.1656     0.0394 </r>
       <r>    -5.7710     0.2272     0.0682 </r>
       <r>    -5.6438     0.2373     0.0984 </r>
       <r>    -5.5167     0.3000     0.1366 </r>
       <r>    -5.3896     0.3278     0.1782 </r>
       <r>    -5.2625     0.3016     0.2166 </r>
       <r>    -5.1353     0.4394     0.2724 </r>
       <r>    -5.0082     0.3827     0.3211 </r>
       <r>    -4.8811     0.3962     0.3714 </r>
       <r>    -4.7540     0.4997     0.4350 </r>
       <r>    -4.6268     0.5453     0.5043 </r>
       <r>    -4.4997     0.4353     0.5596 </r>
       <r>    -4.3726     0.5605     0.6309 </r>
       <r>    -4.2455     0.6901     0.7186 </r>
       <r>    -4.1183     0.6580     0.8022 </r>
       <r>    -3.9912     0.5805     0.8760 </r>
       <r>    -3.8641     0.9266     0.9938 </r>
       <r>    -3.7370     1.0067     1.1218 </r>
       <r>    -3.6098     0.6471     1.2041 </r>
       <r>    -3.4827     0.8152     1.3077 </r>
       <r>    -3.3556     0.8347     1.4138 </r>
       <r>    -3.2285     0.7268     1.5062 </r>
       <r>    -3.1013     0.4977     1.5695 </r>
       <r>    -2.9742     0.7195     1.6609 </r>
       <r>    -2.8471     0.6399     1.7423 </r>
       <r>    -2.7200     0.3446     1.7861 </r>
       <r>    -2.5928     0.5015     1.8499 </r>
       <r>    -2.4657     0.5382     1.9183 </r>
       <r>    -2.3386     0.2078     1.9447 </r>
       <r>    -2.2115     0.2154     1.9721 </r>
       <r>    -2.0843     0.2275     2.0010 </r>
       <r>    -1.9572     0.1229     2.0166 </r>
       <r>    -1.8301     0.1116     2.0308 </r>
       <r>    -1.7030     0.1761     2.0532 </r>
       <r>    -1.5758     0.4227     2.1069 </r>
       <r>    -1.4487     0.5006     2.1706 </r>
       <r>    -1.3216     0.3662     2.2171 </r>
       <r>    -1.1945     0.7370     2.3108 </r>
       <r>    -1.0673     1.5811     2.5118 </r>
       <r>    -0.9402     1.2036     2.6648 </r>
       <r>    -0.8131     0.8362     2.7711 </r>
       <r>    -0.6860     0.9213     2.8882 </r>
       <r>    -0.5588     0.6502     2.9709 </r>
       <r>    -0.4317     0.6538     3.0540 </r>
       <r>    -0.3046     0.4692     3.1137 </r>
       <r>    -0.1775     0.5763     3.1869 </r>
       <r>    -0.0503     0.4868     3.2488 </r>
       <r>     0.0768     0.4471     3.3057 </r>
       <r>     0.2039     0.3209     3.3465 </r>
       <r>     0.3310     0.3745     3.3941 </r>
       <r>     0.4582     0.5012     3.4578 </r>
       <r>     0.5853     0.2236     3.4862 </r>
       <r>     0.7124     0.2727     3.5209 </r>
       <r>     0.8395     0.3511     3.5655 </r>
       <r>     0.9667     0.1499     3.5846 </r>
       <r>     1.0938     0.3753     3.6323 </r>
       <r>     1.2209     0.2769     3.6675 </r>
       <r>     1.3480     0.2505     3.6993 </r>
       <r>     1.4752     0.6812     3.7859 </r>
       <r>     1.6023     0.9685     3.9090 </r>
       <r>     1.7294     1.2721     4.0708 </r>
       <r>     1.8565     1.2513     4.2298 </r>
       <r>     1.9837     0.9576     4.3516 </r>
       <r>     2.1108     0.8592     4.4608 </r>
       <r>     2.2379     1.3598     4.6337 </r>
       <r>     2.3650     0.9814     4.7584 </r>
       <r>     2.4921     0.8911     4.8717 </r>
       <r>     2.6193     1.3426     5.0424 </r>
       <r>     2.7464     1.4780     5.2303 </r>
       <r>     2.8735     1.3163     5.3976 </r>
       <r>     3.0006     1.4957     5.5878 </r>
       <r>     3.1278     1.5581     5.7858 </r>
       <r>     3.2549     1.2562     5.9455 </r>
       <r>     3.3820     1.3941     6.1227 </r>
       <r>     3.5091     1.8335     6.3558 </r>
       <r>     3.6363     1.2878     6.5195 </r>
       <r>     3.7634     1.0587     6.6541 </r>
       <r>     3.8905     1.2742     6.8161 </r>
       <r>     4.0176     1.3513     6.9879 </r>
       <r>     4.1448     1.2044     7.1410 </r>
       <r>     4.2719     1.2462     7.2994 </r>
       <r>     4.3990     1.0683     7.4352 </r>
       <r>     4.5261     1.0968     7.5747 </r>
       <r>     4.6533     0.7370     7.6684 </r>
       <r>     4.7804     0.6096     7.7459 </r>
       <r>     4.9075     0.4504     7.8031 </r>
       <r>     5.0346     0.4550     7.8610 </r>
       <r>     5.1618     0.4381     7.9166 </r>
       <r>     5.2889     0.2732     7.9514 </r>
       <r>     5.4160     0.1922     7.9758 </r>
       <r>     5.5431     0.1193     7.9910 </r>
       <r>     5.6703     0.0645     7.9992 </r>
       <r>     5.7974     0.0065     8.0000 </r>
       <r>     5.9245     0.0001     8.0000 </r>
       <r>     6.0516     0.0002     8.0000 </r>
       <r>     6.1788     0.0086     8.0011 </r>
       <r>     6.3059     0.0568     8.0083 </r>
       <r>     6.4330     0.1741     8.0305 </r>
       <r>     6.5601     0.2339     8.0602 </r>
       <r>     6.6873     0.3505     8.1048 </r>
       <r>     6.8144     0.4526     8.1623 </r>
       <r>     6.9415     0.5709     8.2349 </r>
       <r>     7.0686     0.6986     8.3237 </r>
       <r>     7.1958     0.6674     8.4085 </r>
       <r>     7.3229     0.6518     8.4914 </r>
       <r>     7.4500     0.8469     8.5990 </r>
       <r>     7.5771     1.1802     8.7491 </r>
       <r>     7.7043     1.2148     8.9035 </r>
       <r>     7.8314     1.3966     9.0810 </r>
       <r>     7.9585     1.8393     9.3149 </r>
       <r>     8.0856     1.6330     9.5225 </r>
       <r>     8.2128     1.5377     9.7179 </r>
       <r>     8.3399     1.2000     9.8705 </r>
       <r>     8.4670     0.8981     9.9847 </r>
       <r>     8.5941     1.0310    10.1157 </r>
       <r>     8.7213     0.9365    10.2348 </r>
       <r>     8.8484     1.6002    10.4382 </r>
       <r>     8.9755     2.3235    10.7336 </r>
       <r>     9.1026     2.0581    10.9952 </r>
       <r>     9.2298     1.7800    11.2215 </r>
       <r>     9.3569     1.6381    11.4297 </r>
       <r>     9.4840     1.7464    11.6518 </r>
       <r>     9.6111     1.3132    11.8187 </r>
       <r>     9.7383     1.1493    11.9648 </r>
       <r>     9.8654     1.1271    12.1081 </r>
       <r>     9.9925     1.1576    12.2552 </r>
       <r>    10.1196     1.3266    12.4239 </r>
       <r>    10.2468     1.5785    12.6245 </r>
       <r>    10.3739     0.9212    12.7416 </r>
       <r>    10.5010     1.2530    12.9009 </r>
       <r>    10.6281     1.6668    13.1128 </r>
       <r>    10.7553     1.5673    13.3121 </r>
       <r>    10.8824     1.3545    13.4843 </r>
       <r>    11.0095     1.0721    13.6205 </r>
       <r>    11.1366     0.7579    13.7169 </r>
       <r>    11.2638     0.7550    13.8129 </r>
       <r>    11.3909     0.7970    13.9142 </r>
       <r>    11.5180     0.8905    14.0274 </r>
       <r>    11.6451     1.3254    14.1959 </r>
       <r>    11.7723     1.5499    14.3929 </r>
       <r>    11.8994     1.6047    14.5969 </r>
       <r>    12.0265     1.2146    14.7513 </r>
       <r>    12.1536     0.9776    14.8756 </r>
       <r>    12.2808     0.9236    14.9930 </r>
       <r>    12.4079     1.1229    15.1358 </r>
       <r>    12.5350     0.8923    15.2492 </r>
       <r>    12.6621     0.8066    15.3517 </r>
       <r>    12.7893     0.9651    15.4744 </r>
       <r>    12.9164     1.3594    15.6472 </r>
       <r>    13.0435     1.5259    15.8412 </r>
       <r>    13.1706     1.8134    16.0717 </r>
       <r>    13.2978     1.2580    16.2317 </r>
       <r>    13.4249     1.3015    16.3971 </r>
       <r>    13.5520     1.4340    16.5794 </r>
       <r>    13.6791     0.9418    16.6991 </r>
       <r>    13.8063     0.9096    16.8148 </r>
       <r>    13.9334     0.8227    16.9194 </r>
       <r>    14.0605     1.2064    17.0727 </r>
       <r>    14.1876     1.0772    17.2097 </r>
       <r>    14.3148     1.1965    17.3618 </r>
       <r>    14.4419     2.0350    17.6205 </r>
       <r>    14.5690     1.5952    17.8233 </r>
       <r>    14.6961     1.2146    17.9777 </r>
       <r>    14.8233     1.1985    18.1300 </r>
       <r>    14.9504     1.4679    18.3166 </r>
       <r>    15.0775     1.3642    18.4901 </r>
       <r>    15.2046     0.9399    18.6096 </r>
       <r>    15.3318     0.9201    18.7265 </r>
       <r>    15.4589     1.7568    18.9499 </r>
       <r>    15.5860     1.6995    19.1659 </r>
       <r>    15.7131     1.1746    19.3152 </r>
       <r>    15.8402     1.0784    19.4523 </r>
       <r>    15.9674     1.3310    19.6215 </r>
       <r>    16.0945     1.5276    19.8157 </r>
       <r>    16.2216     1.4770    20.0035 </r>
       <r>    16.3487     1.0148    20.1325 </r>
       <r>    16.4759     1.0242    20.2627 </r>
       <r>    16.6030     1.1569    20.4098 </r>
       <r>    16.7301     1.0598    20.5445 </r>
       <r>    16.8572     1.2800    20.7072 </r>
       <r>    16.9844     1.3758    20.8821 </r>
       <r>    17.1115     1.1415    21.0272 </r>
       <r>    17.2386     1.3738    21.2018 </r>
       <r>    17.3657     1.6593    21.4128 </r>
       <r>    17.4929     1.2742    21.5747 </r>
       <r>    17.6200     1.5872    21.7765 </r>
       <r>    17.7471     1.8687    22.0141 </r>
       <r>    17.8742     1.5765    22.2145 </r>
       <r>    18.0014     1.4685    22.4012 </r>
       <r>    18.1285     1.2345    22.5581 </r>
       <r>    18.2556     1.2670    22.7192 </r>
       <r>    18.3827     1.9016    22.9609 </r>
       <r>    18.5099     1.9929    23.2143 </r>
       <r>    18.6370     1.0626    23.3494 </r>
       <r>    18.7641     0.9484    23.4699 </r>
       <r>    18.8912     1.5277    23.6641 </r>
       <r>    19.0184     2.2274    23.9473 </r>
       <r>    19.1455     2.1050    24.2149 </r>
       <r>    19.2726     1.4785    24.4028 </r>
       <r>    19.3997     1.7913    24.6306 </r>
       <r>    19.5269     1.7821    24.8571 </r>
       <r>    19.6540     1.3693    25.0312 </r>
       <r>    19.7811     1.4097    25.2104 </r>
       <r>    19.9082     1.7440    25.4321 </r>
       <r>    20.0354     1.3722    25.6065 </r>
       <r>    20.1625     1.1733    25.7557 </r>
       <r>    20.2896     1.4318    25.9377 </r>
       <r>    20.4167     1.5099    26.1296 </r>
       <r>    20.5439     1.4233    26.3106 </r>
       <r>    20.6710     2.0162    26.5669 </r>
       <r>    20.7981     1.5956    26.7697 </r>
       <r>    20.9252     1.2203    26.9249 </r>
       <r>    21.0524     1.3147    27.0920 </r>
       <r>    21.1795     1.9107    27.3349 </r>
       <r>    21.3066     1.5975    27.5380 </r>
       <r>    21.4337     1.1061    27.6786 </r>
       <r>    21.5609     1.3557    27.8509 </r>
       <r>    21.6880     1.1716    27.9999 </r>
       <r>    21.8151     1.2159    28.1544 </r>
       <r>    21.9422     1.5830    28.3557 </r>
       <r>    22.0694     1.5273    28.5498 </r>
       <r>    22.1965     1.3915    28.7267 </r>
       <r>    22.3236     1.2890    28.8906 </r>
       <r>    22.4507     1.2959    29.0553 </r>
       <r>    22.5779     1.6867    29.2698 </r>
       <r>    22.7050     2.0530    29.5308 </r>
       <r>    22.8321     1.7386    29.7518 </r>
       <r>    22.9592     1.2197    29.9068 </r>
       <r>    23.0864     1.4966    30.0971 </r>
       <r>    23.2135     1.9077    30.3396 </r>
       <r>    23.3406     1.7333    30.5600 </r>
       <r>    23.4677     1.5298    30.7544 </r>
       <r>    23.5949     1.1095    30.8955 </r>
       <r>    23.7220     1.6516    31.1054 </r>
       <r>    23.8491     1.6176    31.3111 </r>
       <r>    23.9762     1.2209    31.4663 </r>
       <r>    24.1034     1.0095    31.5946 </r>
       <r>    24.2305     0.5766    31.6679 </r>
       <r>    24.3576     0.2078    31.6943 </r>
       <r>    24.4847     0.4149    31.7471 </r>
       <r>    24.6119     0.5435    31.8162 </r>
       <r>    24.7390     0.2979    31.8540 </r>
       <r>    24.8661     0.2033    31.8799 </r>
       <r>    24.9932     0.1070    31.8935 </r>
       <r>    25.1204     0.0811    31.9038 </r>
       <r>    25.2475     0.0857    31.9147 </r>
       <r>    25.3746     0.1638    31.9355 </r>
       <r>    25.5017     0.1497    31.9546 </r>
       <r>    25.6289     0.0179    31.9568 </r>
       <r>    25.7560     0.0126    31.9584 </r>
       <r>    25.8831     0.0135    31.9602 </r>
       <r>    26.0102     0.0060    31.9609 </r>
       <r>    26.1374     0.0706    31.9699 </r>
       <r>    26.2645     0.1165    31.9847 </r>
       <r>    26.3916     0.0473    31.9907 </r>
       <r>    26.5187     0.0031    31.9911 </r>
       <r>    26.6459     0.0000    31.9911 </r>
       <r>    26.7730     0.0000    31.9911 </r>
       <r>    26.9001     0.0000    31.9911 </r>
       <r>    27.0272     0.0000    31.9911 </r>
       <r>    27.1544     0.0000    31.9911 </r>
       <r>    27.2815     0.0001    31.9911 </r>
       <r>    27.4086     0.0040    31.9916 </r>
       <r>    27.5357     0.0175    31.9939 </r>
       <r>    27.6629     0.0068    31.9947 </r>
       <r>    27.7900     0.0127    31.9963 </r>
       <r>    27.9171     0.0213    31.9990 </r>
       <r>    28.0442     0.0029    31.9994 </r>
       <r>    28.1714     0.0000    31.9994 </r>
       <r>    28.2985     0.0000    31.9994 </r>
       <r>    28.4256     0.0012    31.9996 </r>
       <r>    28.5527     0.0029    31.9999 </r>
       <r>    28.6799     0.0006    32.0000 </r>
       <r>    28.8070     0.0000    32.0000 </r>
       <r>    28.9341     0.0000    32.0000 </r>
       <r>    29.0612     0.0000    32.0000 </r>
       <r>    29.1884     0.0000    32.0000 </r>
       <r>    29.3155     0.0000    32.0000 </r>
       <r>    29.4426     0.0000    32.0000 </r>
       <r>    29.5697     0.0000    32.0000 </r>
       <r>    29.6968     0.0000    32.0000 </r>
       <r>    29.8240     0.0000    32.0000 </r>
       <r>    29.9511     0.0000    32.0000 </r>
       <r>    30.0782     0.0000    32.0000 </r>
       <r>    30.2053     0.0000    32.0000 </r>
      </set>
     </set>
    </array>
   </total>
  </dos>
 </calculation>
 <structure name="finalpos" >
  <crystal>
   <varray name="basis" >
    <v>       0.00000000       2.73429417       2.73429417 </v>
    <v>       2.73429417       0.00000000       2.73429417 </v>
    <v>       2.73429417       2.73429417       0.00000000 </v>
   </varray>
   <i name="volume">     40.88516038 </i>
   <varray name="rec_basis" >
    <v>      -0.18286255       0.18286255       0.18286255 </v>
    <v>       0.18286255      -0.18286255       0.18286255 </v>
    <v>       0.18286255       0.18286255      -0.18286255 </v>
   </varray>
  </crystal>
  <varray name="positions" >
   <v>       0.87500000       0.87500000       0.87500000 </v>
   <v>       0.12500000       0.12500000       0.12500000 </v>
  </varray>
 </structure>
</modeling>
