Real silicon (diamond-like)             
           1
     0.000000    2.724661    2.724661
     2.724661    0.000000    2.724661
     2.724661    2.724661    0.000000
   Si
   2
Direct configuration=     1
   0.87500000  0.87500000  0.87500000
   0.12500000  0.12500000  0.12500000
Real silicon (diamond-like)             
           1
     0.000000    2.734230    2.734230
     2.734230    0.000000    2.734230
     2.734230    2.734230    0.000000
   Si
   2
Direct configuration=     2
   0.87500000  0.87500000  0.87500000
   0.12500000  0.12500000  0.12500000
Real silicon (diamond-like)             
           1
     0.000000    2.734294    2.734294
     2.734294    0.000000    2.734294
     2.734294    2.734294    0.000000
   Si
   2
Direct configuration=     3
   0.87500000  0.87500000  0.87500000
   0.12500000  0.12500000  0.12500000
Real silicon (diamond-like)             
           1
     0.000000    2.734294    2.734294
     2.734294    0.000000    2.734294
     2.734294    2.734294    0.000000
   Si
   2
Direct configuration=     4
   0.87500000  0.87500000  0.87500000
   0.12500000  0.12500000  0.12500000
