   1   1   0   0
  0.1482975E+02  0.2757716E-09  0.2757716E-09  0.2757716E-09  0.5000000E-15
  1.000000000000000E-004
  CAR 
 FCC Silicon                             
     66.18119677     -7.73864028  301      9.84801737      1.00000000
     -7.739  0.0000E+00  0.0000E+00
     -7.492  0.0000E+00  0.0000E+00
     -7.246  0.0000E+00  0.0000E+00
     -6.999  0.0000E+00  0.0000E+00
     -6.753  0.0000E+00  0.0000E+00
     -6.507  0.0000E+00  0.0000E+00
     -6.260  0.0000E+00  0.0000E+00
     -6.014  0.0000E+00  0.0000E+00
     -5.767  0.0000E+00  0.0000E+00
     -5.521  0.0000E+00  0.0000E+00
     -5.275  0.0000E+00  0.0000E+00
     -5.028  0.0000E+00  0.0000E+00
     -4.782  0.1423E-10  0.3507E-11
     -4.535  0.3256E-04  0.8022E-05
     -4.289  0.9659E-02  0.2388E-02
     -4.043  0.4206E-01  0.1275E-01
     -3.796  0.8563E-01  0.3385E-01
     -3.550  0.7820E-01  0.5312E-01
     -3.303  0.1151E+00  0.8148E-01
     -3.057  0.8625E-01  0.1027E+00
     -2.811  0.1771E+00  0.1464E+00
     -2.564  0.1275E+00  0.1778E+00
     -2.318  0.1002E+00  0.2025E+00
     -2.071  0.1874E+00  0.2487E+00
     -1.825  0.2366E+00  0.3069E+00
     -1.579  0.8607E-01  0.3281E+00
     -1.332  0.1901E+00  0.3750E+00
     -1.086  0.2211E+00  0.4295E+00
     -0.839  0.2483E+00  0.4907E+00
     -0.593  0.1819E+00  0.5355E+00
     -0.347  0.1255E+00  0.5664E+00
     -0.100  0.2687E+00  0.6326E+00
      0.146  0.3239E+00  0.7124E+00
      0.393  0.1440E+00  0.7479E+00
      0.639  0.2933E+00  0.8201E+00
      0.885  0.1771E+00  0.8638E+00
      1.132  0.2725E+00  0.9309E+00
      1.378  0.3145E+00  0.1008E+01
      1.625  0.2915E+00  0.1080E+01
      1.871  0.2276E+00  0.1136E+01
      2.117  0.3442E+00  0.1221E+01
      2.364  0.1796E+00  0.1265E+01
      2.610  0.3130E+00  0.1343E+01
      2.857  0.3752E+00  0.1435E+01
      3.103  0.3678E+00  0.1526E+01
      3.349  0.2597E+00  0.1590E+01
      3.596  0.1282E+00  0.1621E+01
      3.842  0.2880E+00  0.1692E+01
      4.089  0.5507E+00  0.1828E+01
      4.335  0.2330E+00  0.1885E+01
      4.581  0.3223E+00  0.1965E+01
      4.828  0.3701E+00  0.2056E+01
      5.074  0.3227E+00  0.2135E+01
      5.321  0.4068E+00  0.2236E+01
      5.567  0.1636E+00  0.2276E+01
      5.813  0.3969E+00  0.2374E+01
      6.060  0.5023E+00  0.2497E+01
      6.306  0.2855E+00  0.2568E+01
      6.553  0.4116E+00  0.2669E+01
      6.799  0.3727E+00  0.2761E+01
      7.045  0.4921E+00  0.2882E+01
      7.292  0.1999E+00  0.2932E+01
      7.538  0.2118E+00  0.2984E+01
      7.785  0.4283E+00  0.3089E+01
      8.031  0.8133E+00  0.3290E+01
      8.277  0.1993E+00  0.3339E+01
      8.524  0.4384E+00  0.3447E+01
      8.770  0.2648E+00  0.3512E+01
      9.017  0.4864E+00  0.3632E+01
      9.263  0.4335E+00  0.3739E+01
      9.509  0.3169E+00  0.3817E+01
      9.756  0.5015E+00  0.3940E+01
     10.002  0.5484E+00  0.4076E+01
     10.249  0.2368E+00  0.4134E+01
     10.495  0.6261E+00  0.4288E+01
     10.741  0.4690E+00  0.4404E+01
     10.988  0.5121E+00  0.4530E+01
     11.234  0.2801E+00  0.4599E+01
     11.481  0.3918E+00  0.4695E+01
     11.727  0.5604E+00  0.4834E+01
     11.973  0.6605E+00  0.4996E+01
     12.220  0.4332E+00  0.5103E+01
     12.466  0.4325E+00  0.5210E+01
     12.713  0.6129E+00  0.5361E+01
     12.959  0.5535E+00  0.5497E+01
     13.205  0.5086E+00  0.5622E+01
     13.452  0.5012E+00  0.5746E+01
     13.698  0.6664E+00  0.5910E+01
     13.945  0.4614E+00  0.6024E+01
     14.191  0.6581E+00  0.6186E+01
     14.437  0.4473E+00  0.6296E+01
     14.684  0.4559E+00  0.6408E+01
     14.930  0.2860E+00  0.6479E+01
     15.177  0.5785E+00  0.6621E+01
     15.423  0.7294E+00  0.6801E+01
     15.669  0.3592E+00  0.6890E+01
     15.916  0.3910E+00  0.6986E+01
     16.162  0.4411E+00  0.7095E+01
     16.409  0.4935E+00  0.7216E+01
     16.655  0.5094E+00  0.7342E+01
     16.901  0.4850E+00  0.7461E+01
     17.148  0.5329E+00  0.7593E+01
     17.394  0.4536E+00  0.7704E+01
     17.641  0.4477E+00  0.7815E+01
     17.887  0.8558E+00  0.8026E+01
     18.133  0.4024E+00  0.8125E+01
     18.380  0.5356E+00  0.8257E+01
     18.626  0.4660E+00  0.8371E+01
     18.873  0.7191E+00  0.8549E+01
     19.119  0.2731E+00  0.8616E+01
     19.365  0.4045E+00  0.8716E+01
     19.612  0.6601E+00  0.8878E+01
     19.858  0.8261E+00  0.9082E+01
     20.104  0.4900E+00  0.9203E+01
     20.351  0.5199E+00  0.9331E+01
     20.597  0.6499E+00  0.9491E+01
     20.844  0.6636E+00  0.9654E+01
     21.090  0.5451E+00  0.9789E+01
     21.336  0.6348E+00  0.9945E+01
     21.583  0.5471E+00  0.1008E+02
     21.829  0.3144E+00  0.1016E+02
     22.076  0.6809E+00  0.1033E+02
     22.322  0.4829E+00  0.1044E+02
     22.568  0.5323E+00  0.1058E+02
     22.815  0.8939E+00  0.1080E+02
     23.061  0.8580E+00  0.1101E+02
     23.308  0.6903E+00  0.1118E+02
     23.554  0.5360E+00  0.1131E+02
     23.800  0.4360E+00  0.1142E+02
     24.047  0.7165E+00  0.1159E+02
     24.293  0.4970E+00  0.1172E+02
     24.540  0.3928E+00  0.1181E+02
     24.786  0.1164E+01  0.1210E+02
     25.032  0.7239E+00  0.1228E+02
     25.279  0.5984E+00  0.1242E+02
     25.525  0.6314E+00  0.1258E+02
     25.772  0.5545E+00  0.1272E+02
     26.018  0.7662E+00  0.1291E+02
     26.264  0.5064E+00  0.1303E+02
     26.511  0.3843E+00  0.1313E+02
     26.757  0.7000E+00  0.1330E+02
     27.004  0.9249E+00  0.1353E+02
     27.250  0.7105E+00  0.1370E+02
     27.496  0.3467E+00  0.1379E+02
     27.743  0.8845E+00  0.1400E+02
     27.989  0.4425E+00  0.1411E+02
     28.236  0.4403E+00  0.1422E+02
     28.482  0.8813E+00  0.1444E+02
     28.728  0.5778E+00  0.1458E+02
     28.975  0.4406E+00  0.1469E+02
     29.221  0.9764E+00  0.1493E+02
     29.468  0.7954E+00  0.1513E+02
     29.714  0.8435E+00  0.1533E+02
     29.960  0.7085E+00  0.1551E+02
     30.207  0.8944E+00  0.1573E+02
     30.453  0.4327E+00  0.1584E+02
     30.700  0.5552E+00  0.1597E+02
     30.946  0.7933E+00  0.1617E+02
     31.192  0.3453E+00  0.1625E+02
     31.439  0.1025E+01  0.1651E+02
     31.685  0.6985E+00  0.1668E+02
     31.932  0.7883E+00  0.1687E+02
     32.178  0.7451E+00  0.1706E+02
     32.424  0.6650E+00  0.1722E+02
     32.671  0.9401E+00  0.1745E+02
     32.917  0.5481E+00  0.1759E+02
     33.164  0.6131E+00  0.1774E+02
     33.410  0.8084E+00  0.1794E+02
     33.656  0.8518E+00  0.1815E+02
     33.903  0.6892E+00  0.1832E+02
     34.149  0.5121E+00  0.1844E+02
     34.396  0.8068E+00  0.1864E+02
     34.642  0.7999E+00  0.1884E+02
     34.888  0.7602E+00  0.1903E+02
     35.135  0.6100E+00  0.1918E+02
     35.381  0.4476E+00  0.1929E+02
     35.628  0.2938E+00  0.1936E+02
     35.874  0.4313E+00  0.1946E+02
     36.120  0.3972E+00  0.1956E+02
     36.367  0.3192E+00  0.1964E+02
     36.613  0.3398E+00  0.1973E+02
     36.860  0.3690E+00  0.1982E+02
     37.106  0.3400E+00  0.1990E+02
     37.352  0.5139E+00  0.2003E+02
     37.599  0.3312E+00  0.2011E+02
     37.845  0.3385E+00  0.2019E+02
     38.092  0.2674E+00  0.2026E+02
     38.338  0.3464E+00  0.2034E+02
     38.584  0.2570E+00  0.2041E+02
     38.831  0.3746E+00  0.2050E+02
     39.077  0.5158E+00  0.2063E+02
     39.324  0.5899E+00  0.2077E+02
     39.570  0.6746E+00  0.2094E+02
     39.816  0.6694E+00  0.2110E+02
     40.063  0.5701E+00  0.2124E+02
     40.309  0.4988E+00  0.2137E+02
     40.556  0.7894E+00  0.2156E+02
     40.802  0.6462E+00  0.2172E+02
     41.048  0.7597E+00  0.2191E+02
     41.295  0.7570E+00  0.2209E+02
     41.541  0.5054E+00  0.2222E+02
     41.788  0.8720E+00  0.2243E+02
     42.034  0.8112E+00  0.2263E+02
     42.280  0.9889E+00  0.2288E+02
     42.527  0.1267E+01  0.2319E+02
     42.773  0.9806E+00  0.2343E+02
     43.020  0.8456E+00  0.2364E+02
     43.266  0.1329E+01  0.2397E+02
     43.512  0.1030E+01  0.2422E+02
     43.759  0.6451E+00  0.2438E+02
     44.005  0.1059E+01  0.2464E+02
     44.252  0.5234E+00  0.2477E+02
     44.498  0.9096E+00  0.2499E+02
     44.744  0.1023E+01  0.2524E+02
     44.991  0.1107E+01  0.2552E+02
     45.237  0.1127E+01  0.2579E+02
     45.484  0.8322E+00  0.2600E+02
     45.730  0.8391E+00  0.2621E+02
     45.976  0.7728E+00  0.2640E+02
     46.223  0.9512E+00  0.2663E+02
     46.469  0.9130E+00  0.2686E+02
     46.716  0.1085E+01  0.2712E+02
     46.962  0.5699E+00  0.2726E+02
     47.208  0.5655E+00  0.2740E+02
     47.455  0.6251E+00  0.2756E+02
     47.701  0.1021E+01  0.2781E+02
     47.948  0.8457E+00  0.2802E+02
     48.194  0.3902E+00  0.2811E+02
     48.440  0.6242E+00  0.2827E+02
     48.687  0.1048E+01  0.2853E+02
     48.933  0.1005E+01  0.2877E+02
     49.180  0.6459E+00  0.2893E+02
     49.426  0.6953E+00  0.2910E+02
     49.672  0.4688E+00  0.2922E+02
     49.919  0.7259E+00  0.2940E+02
     50.165  0.8601E+00  0.2961E+02
     50.412  0.6888E+00  0.2978E+02
     50.658  0.9804E+00  0.3002E+02
     50.904  0.6483E+00  0.3018E+02
     51.151  0.9754E+00  0.3042E+02
     51.397  0.6267E+00  0.3058E+02
     51.644  0.7152E+00  0.3075E+02
     51.890  0.8763E+00  0.3097E+02
     52.136  0.1018E+01  0.3122E+02
     52.383  0.7090E+00  0.3139E+02
     52.629  0.6092E+00  0.3154E+02
     52.876  0.3558E+00  0.3163E+02
     53.122  0.4555E+00  0.3174E+02
     53.368  0.1887E+00  0.3179E+02
     53.615  0.1954E+00  0.3184E+02
     53.861  0.7758E-01  0.3186E+02
     54.108  0.1060E+00  0.3188E+02
     54.354  0.1889E+00  0.3193E+02
     54.600  0.2039E-01  0.3193E+02
     54.847  0.1051E+00  0.3196E+02
     55.093  0.2940E-02  0.3196E+02
     55.340  0.3347E-08  0.3196E+02
     55.586  0.0000E+00  0.3196E+02
     55.832  0.0000E+00  0.3196E+02
     56.079  0.0000E+00  0.3196E+02
     56.325  0.0000E+00  0.3196E+02
     56.572  0.0000E+00  0.3196E+02
     56.818  0.0000E+00  0.3196E+02
     57.064  0.0000E+00  0.3196E+02
     57.311  0.6470E-09  0.3196E+02
     57.557  0.4518E-03  0.3196E+02
     57.804  0.1386E-01  0.3197E+02
     58.050  0.5845E-01  0.3198E+02
     58.296  0.1918E-01  0.3198E+02
     58.543  0.2603E-01  0.3199E+02
     58.789  0.2281E-02  0.3199E+02
     59.036  0.1411E-07  0.3199E+02
     59.282  0.0000E+00  0.3199E+02
     59.528  0.0000E+00  0.3199E+02
     59.775  0.0000E+00  0.3199E+02
     60.021  0.0000E+00  0.3199E+02
     60.268  0.0000E+00  0.3199E+02
     60.514  0.8010E-18  0.3199E+02
     60.760  0.9869E-08  0.3199E+02
     61.007  0.1289E-02  0.3199E+02
     61.253  0.1297E-01  0.3199E+02
     61.500  0.1506E-01  0.3200E+02
     61.746  0.4354E-02  0.3200E+02
     61.992  0.2191E-06  0.3200E+02
     62.239  0.1113E-15  0.3200E+02
     62.485  0.2425E-08  0.3200E+02
     62.732  0.2466E-03  0.3200E+02
     62.978  0.2126E-02  0.3200E+02
     63.224  0.3197E-04  0.3200E+02
     63.471  0.1423E-10  0.3200E+02
     63.717  0.0000E+00  0.3200E+02
     63.964  0.0000E+00  0.3200E+02
     64.210  0.0000E+00  0.3200E+02
     64.456  0.0000E+00  0.3200E+02
     64.703  0.0000E+00  0.3200E+02
     64.949  0.0000E+00  0.3200E+02
     65.196  0.0000E+00  0.3200E+02
     65.442  0.0000E+00  0.3200E+02
     65.688  0.0000E+00  0.3200E+02
     65.935  0.0000E+00  0.3200E+02
     66.181  0.0000E+00  0.3200E+02
