       N       E                     dE             d eps       ncg     rms          rms(c)
DAV:   1    -0.466232341208E+01   -0.46623E+01   -0.11765E+03  5264   0.106E+02
DAV:   2    -0.488367103404E+01   -0.22135E+00   -0.21938E+00  4992   0.555E+00
DAV:   3    -0.488372908608E+01   -0.58052E-04   -0.58052E-04  5200   0.834E-02
DAV:   4    -0.488372909168E+01   -0.56008E-08   -0.42670E-08  5408   0.536E-04
DAV:   5    -0.488372909077E+01    0.90785E-09   -0.21966E-13  5200   0.607E-07    0.771E-01
DAV:   6    -0.487089703955E+01    0.12832E-01   -0.40766E-03  4272   0.138E-01    0.461E-01
DAV:   7    -0.486359109473E+01    0.73059E-02   -0.89773E-03  4304   0.204E-01    0.256E-02
DAV:   8    -0.486357305697E+01    0.18038E-04   -0.20100E-05  4400   0.135E-02    0.444E-03
DAV:   9    -0.486357383154E+01   -0.77456E-06   -0.22469E-07  5600   0.166E-03
   1 F= -.48635738E+01 E0= -.48619464E+01  d E =-.325478E-02
