 vasp.5.4.1 24Jun15 (build May 02 2016 14:41:14) complex                        
  
 executed on           IFC91_ompi date 2022.05.07  11:02:49
 running on   16 total cores
 distrk:  each k-point on   16 cores,    1 groups
 distr:  one band on NCORES_PER_BAND=   1 cores,   16 groups


--------------------------------------------------------------------------------------------------------


 INCAR:
 POTCAR:   PAW_PBE Si 05Jan2001                   

 ----------------------------------------------------------------------------- 
|                                                                             |
|           W    W    AA    RRRRR   N    N  II  N    N   GGGG   !!!           |
|           W    W   A  A   R    R  NN   N  II  NN   N  G    G  !!!           |
|           W    W  A    A  R    R  N N  N  II  N N  N  G       !!!           |
|           W WW W  AAAAAA  RRRRR   N  N N  II  N  N N  G  GGG   !            |
|           WW  WW  A    A  R   R   N   NN  II  N   NN  G    G                |
|           W    W  A    A  R    R  N    N  II  N    N   GGGG   !!!           |
|                                                                             |
|      For optimal performance we recommend to set                            |
|        NCORE= 4 - approx SQRT( number of cores)                             |
|      NCORE specifies how many cores store one orbital (NPAR=cpu/NCORE).     |
|      This setting can  greatly improve the performance of VASP for DFT.     |
|      The default, NPAR=number of cores might be grossly inefficient         |
|      on modern multi-core architectures or massively parallel machines.     |
|      Do your own testing !!!!                                               |
|      Unfortunately you need to use the default for GW and RPA calculations. |
|      (for HF NCORE is supported but not extensively tested yet)             |
|                                                                             |
 ----------------------------------------------------------------------------- 

 POTCAR:   PAW_PBE Si 05Jan2001                   
   VRHFIN =Si: s2p2                                                             
   LEXCH  = PE                                                                  
   EATOM  =   103.0669 eV,    7.5752 Ry                                         
                                                                                
   TITEL  = PAW_PBE Si 05Jan2001                                                
   LULTRA =        F    use ultrasoft PP ?                                      
   IUNSCR =        1    unscreen: 0-lin 1-nonlin 2-no                           
   RPACOR =    1.500    partial core radius                                     
   POMASS =   28.085; ZVAL   =    4.000    mass and valenz                      
   RCORE  =    1.900    outmost cutoff radius                                   
   RWIGS  =    2.480; RWIGS  =    1.312    wigner-seitz radius (au A)           
   ENMAX  =  245.345; ENMIN  =  184.009 eV                                      
   ICORE  =        2    local potential                                         
   LCOR   =        T    correct aug charges                                     
   LPAW   =        T    paw PP                                                  
   EAUG   =  322.069                                                            
   DEXC   =    -.007                                                            
   RMAX   =    2.944    core radius for proj-oper                               
   RAUG   =    1.300    factor for augmentation sphere                          
   RDEP   =    1.993    radius for radial grids                                 
   QCUT   =   -4.246; QGAM   =    8.493    optimization parameters              
                                                                                
   Description                                                                  
     l     E      TYP  RCUT    TYP  RCUT                                        
     0   .000     23  1.900                                                     
     0   .000     23  1.900                                                     
     1   .000     23  1.900                                                     
     1   .000     23  1.900                                                     
     2   .000      7  1.900                                                     
  local pseudopotential read in
  partial core-charges read in
  atomic valenz-charges read in
  non local Contribution for L=           0  read in
    real space projection operators read in
  non local Contribution for L=           0  read in
    real space projection operators read in
  non local Contribution for L=           1  read in
    real space projection operators read in
  non local Contribution for L=           1  read in
    real space projection operators read in
    PAW grid and wavefunctions read in
 
   number of l-projection  operators is LMAX  =           4
   number of lm-projection operators is LMMAX =           8
 
 PAW_PBE Si 05Jan2001                   :
 energy of atom  1       EATOM= -103.0669
 kinetic energy error for atom=    0.0061 (will be added to EATOM!!)
 
 
 POSCAR: FCC Silicon                             
  positions in cartesian coordinates
  No initial velocities read in
 exchange correlation table for  LEXCH =        8
   RHO(1)=    0.500       N(1)  =     2000
   RHO(2)=  100.500       N(2)  =     4000
 


--------------------------------------------------------------------------------------------------------


 ion  position               nearest neighbor table
   1  0.000  0.000  0.000-
 
  LATTYP: Found a face centered cubic cell.
 ALAT       =     3.9000000000
  
  Lattice vectors:
  
 A1 = (   1.9500000000,   1.9500000000,   0.0000000000)
 A2 = (   0.0000000000,   1.9500000000,   1.9500000000)
 A3 = (   1.9500000000,   0.0000000000,   1.9500000000)


Analysis of symmetry for initial positions (statically):
=====================================================================
 Subroutine PRICEL returns:
 Original cell was already a primitive cell.
 

 Routine SETGRP: Setting up the symmetry group for a 
 face centered cubic supercell.


 Subroutine GETGRP returns: Found 48 space group operations
 (whereof 48 operations were pure point group operations)
 out of a pool of 48 trial point group operations.


The static configuration has the point symmetry O_h .


Analysis of symmetry for dynamics (positions and initial velocities):
=====================================================================
 Subroutine PRICEL returns:
 Original cell was already a primitive cell.
 

 Routine SETGRP: Setting up the symmetry group for a 
 face centered cubic supercell.


 Subroutine GETGRP returns: Found 48 space group operations
 (whereof 48 operations were pure point group operations)
 out of a pool of 48 trial point group operations.


The dynamic configuration has the point symmetry O_h .
 
 
 KPOINTS: K-points                                

Automatic generation of k-mesh.
Space group operators:
 irot       det(A)        alpha          n_x          n_y          n_z        tau_x        tau_y        tau_z
    1     1.000000     0.000000     1.000000     0.000000     0.000000     0.000000     0.000000     0.000000
    2    -1.000000     0.000000     1.000000     0.000000     0.000000     0.000000     0.000000     0.000000
    3     1.000000   120.000000    -0.577350    -0.577350    -0.577350     0.000000     0.000000     0.000000
    4    -1.000000   120.000000    -0.577350    -0.577350    -0.577350     0.000000     0.000000     0.000000
    5     1.000000   120.000000     0.577350     0.577350     0.577350     0.000000     0.000000     0.000000
    6    -1.000000   120.000000     0.577350     0.577350     0.577350     0.000000     0.000000     0.000000
    7     1.000000    90.000000     0.000000    -1.000000     0.000000     0.000000     0.000000     0.000000
    8    -1.000000    90.000000     0.000000    -1.000000     0.000000     0.000000     0.000000     0.000000
    9     1.000000   180.000000     0.707107     0.707107     0.000000     0.000000     0.000000     0.000000
   10    -1.000000   180.000000     0.707107     0.707107     0.000000     0.000000     0.000000     0.000000
   11     1.000000    90.000000     1.000000     0.000000     0.000000     0.000000     0.000000     0.000000
   12    -1.000000    90.000000     1.000000     0.000000     0.000000     0.000000     0.000000     0.000000
   13     1.000000   180.000000     0.000000     1.000000     0.000000     0.000000     0.000000     0.000000
   14    -1.000000   180.000000     0.000000     1.000000     0.000000     0.000000     0.000000     0.000000
   15     1.000000   120.000000     0.577350     0.577350    -0.577350     0.000000     0.000000     0.000000
   16    -1.000000   120.000000     0.577350     0.577350    -0.577350     0.000000     0.000000     0.000000
   17     1.000000   120.000000     0.577350    -0.577350    -0.577350     0.000000     0.000000     0.000000
   18    -1.000000   120.000000     0.577350    -0.577350    -0.577350     0.000000     0.000000     0.000000
   19     1.000000    90.000000     0.000000     1.000000     0.000000     0.000000     0.000000     0.000000
   20    -1.000000    90.000000     0.000000     1.000000     0.000000     0.000000     0.000000     0.000000
   21     1.000000    90.000000     0.000000     0.000000    -1.000000     0.000000     0.000000     0.000000
   22    -1.000000    90.000000     0.000000     0.000000    -1.000000     0.000000     0.000000     0.000000
   23     1.000000   180.000000     0.000000     0.707107     0.707107     0.000000     0.000000     0.000000
   24    -1.000000   180.000000     0.000000     0.707107     0.707107     0.000000     0.000000     0.000000
   25     1.000000   120.000000    -0.577350     0.577350     0.577350     0.000000     0.000000     0.000000
   26    -1.000000   120.000000    -0.577350     0.577350     0.577350     0.000000     0.000000     0.000000
   27     1.000000   120.000000    -0.577350     0.577350    -0.577350     0.000000     0.000000     0.000000
   28    -1.000000   120.000000    -0.577350     0.577350    -0.577350     0.000000     0.000000     0.000000
   29     1.000000   179.999999     0.000000     0.000000     1.000000     0.000000     0.000000     0.000000
   30    -1.000000   179.999999     0.000000     0.000000     1.000000     0.000000     0.000000     0.000000
   31     1.000000    90.000000    -1.000000     0.000000     0.000000     0.000000     0.000000     0.000000
   32    -1.000000    90.000000    -1.000000     0.000000     0.000000     0.000000     0.000000     0.000000
   33     1.000000   180.000000     0.707107     0.000000     0.707107     0.000000     0.000000     0.000000
   34    -1.000000   180.000000     0.707107     0.000000     0.707107     0.000000     0.000000     0.000000
   35     1.000000    90.000000     0.000000     0.000000     1.000000     0.000000     0.000000     0.000000
   36    -1.000000    90.000000     0.000000     0.000000     1.000000     0.000000     0.000000     0.000000
   37     1.000000   120.000000    -0.577350    -0.577350     0.577350     0.000000     0.000000     0.000000
   38    -1.000000   120.000000    -0.577350    -0.577350     0.577350     0.000000     0.000000     0.000000
   39     1.000000   180.000000     1.000000     0.000000     0.000000     0.000000     0.000000     0.000000
   40    -1.000000   180.000000     1.000000     0.000000     0.000000     0.000000     0.000000     0.000000
   41     1.000000   120.000000     0.577350    -0.577350     0.577350     0.000000     0.000000     0.000000
   42    -1.000000   120.000000     0.577350    -0.577350     0.577350     0.000000     0.000000     0.000000
   43     1.000000   180.000000     0.707107    -0.707107     0.000000     0.000000     0.000000     0.000000
   44    -1.000000   180.000000     0.707107    -0.707107     0.000000     0.000000     0.000000     0.000000
   45     1.000000   180.000000     0.707107     0.000000    -0.707107     0.000000     0.000000     0.000000
   46    -1.000000   180.000000     0.707107     0.000000    -0.707107     0.000000     0.000000     0.000000
   47     1.000000   180.000000     0.000000    -0.707107     0.707107     0.000000     0.000000     0.000000
   48    -1.000000   180.000000     0.000000    -0.707107     0.707107     0.000000     0.000000     0.000000
 
 Subroutine IBZKPT returns following result:
 ===========================================
 
 Found    120 irreducible k-points:
 
 Following reciprocal coordinates:
            Coordinates               Weight
  0.000000  0.000000  0.000000      1.000000
  0.066667  0.000000  0.000000      8.000000
  0.133333  0.000000  0.000000      8.000000
  0.200000  0.000000  0.000000      8.000000
  0.266667  0.000000  0.000000      8.000000
  0.333333  0.000000  0.000000      8.000000
  0.400000  0.000000  0.000000      8.000000
  0.466667  0.000000  0.000000      8.000000
  0.066667  0.066667  0.000000      6.000000
  0.133333  0.066667  0.000000     24.000000
  0.200000  0.066667  0.000000     24.000000
  0.266667  0.066667  0.000000     24.000000
  0.333333  0.066667  0.000000     24.000000
  0.400000  0.066667  0.000000     24.000000
  0.466667  0.066667  0.000000     24.000000
 -0.466667  0.066667  0.000000     24.000000
 -0.400000  0.066667  0.000000     24.000000
 -0.333333  0.066667  0.000000     24.000000
 -0.266667  0.066667  0.000000     24.000000
 -0.200000  0.066667  0.000000     24.000000
 -0.133333  0.066667  0.000000     24.000000
 -0.066667  0.066667  0.000000     12.000000
  0.133333  0.133333  0.000000      6.000000
  0.200000  0.133333  0.000000     24.000000
  0.266667  0.133333  0.000000     24.000000
  0.333333  0.133333  0.000000     24.000000
  0.400000  0.133333  0.000000     24.000000
  0.466667  0.133333  0.000000     24.000000
 -0.466667  0.133333  0.000000     24.000000
 -0.400000  0.133333  0.000000     24.000000
 -0.333333  0.133333  0.000000     24.000000
 -0.266667  0.133333  0.000000     24.000000
 -0.200000  0.133333  0.000000     24.000000
 -0.133333  0.133333  0.000000     12.000000
  0.200000  0.200000  0.000000      6.000000
  0.266667  0.200000  0.000000     24.000000
  0.333333  0.200000  0.000000     24.000000
  0.400000  0.200000  0.000000     24.000000
  0.466667  0.200000  0.000000     24.000000
 -0.466667  0.200000  0.000000     24.000000
 -0.400000  0.200000  0.000000     24.000000
 -0.333333  0.200000  0.000000     24.000000
 -0.266667  0.200000  0.000000     24.000000
 -0.200000  0.200000  0.000000     12.000000
  0.266667  0.266667  0.000000      6.000000
  0.333333  0.266667  0.000000     24.000000
  0.400000  0.266667  0.000000     24.000000
  0.466667  0.266667  0.000000     24.000000
 -0.466667  0.266667  0.000000     24.000000
 -0.400000  0.266667  0.000000     24.000000
 -0.333333  0.266667  0.000000     24.000000
 -0.266667  0.266667  0.000000     12.000000
  0.333333  0.333333  0.000000      6.000000
  0.400000  0.333333  0.000000     24.000000
  0.466667  0.333333  0.000000     24.000000
 -0.466667  0.333333  0.000000     24.000000
 -0.400000  0.333333  0.000000     24.000000
 -0.333333  0.333333  0.000000     12.000000
  0.400000  0.400000  0.000000      6.000000
  0.466667  0.400000  0.000000     24.000000
 -0.466667  0.400000  0.000000     24.000000
 -0.400000  0.400000  0.000000     12.000000
  0.466667  0.466667  0.000000      6.000000
 -0.466667  0.466667  0.000000     12.000000
  0.200000  0.133333  0.066667     24.000000
  0.266667  0.133333  0.066667     48.000000
  0.333333  0.133333  0.066667     48.000000
  0.400000  0.133333  0.066667     48.000000
  0.466667  0.133333  0.066667     48.000000
 -0.466667  0.133333  0.066667     48.000000
  0.266667  0.200000  0.066667     24.000000
  0.333333  0.200000  0.066667     48.000000
  0.400000  0.200000  0.066667     48.000000
  0.466667  0.200000  0.066667     48.000000
 -0.466667  0.200000  0.066667     48.000000
 -0.400000  0.200000  0.066667     48.000000
 -0.333333  0.200000  0.066667     48.000000
 -0.266667  0.200000  0.066667     48.000000
 -0.200000  0.200000  0.066667     48.000000
 -0.133333  0.200000  0.066667     24.000000
  0.333333  0.266667  0.066667     24.000000
  0.400000  0.266667  0.066667     48.000000
  0.466667  0.266667  0.066667     48.000000
 -0.466667  0.266667  0.066667     48.000000
 -0.400000  0.266667  0.066667     48.000000
 -0.333333  0.266667  0.066667     48.000000
 -0.266667  0.266667  0.066667     48.000000
 -0.200000  0.266667  0.066667     24.000000
  0.400000  0.333333  0.066667     24.000000
  0.466667  0.333333  0.066667     48.000000
 -0.466667  0.333333  0.066667     48.000000
 -0.400000  0.333333  0.066667     48.000000
 -0.333333  0.333333  0.066667     48.000000
 -0.266667  0.333333  0.066667     24.000000
  0.466667  0.400000  0.066667     24.000000
 -0.466667  0.400000  0.066667     48.000000
 -0.400000  0.400000  0.066667     48.000000
 -0.333333  0.400000  0.066667     24.000000
 -0.466667  0.466667  0.066667     24.000000
 -0.400000  0.466667  0.066667     24.000000
  0.400000  0.266667  0.133333     24.000000
  0.466667  0.266667  0.133333     48.000000
 -0.466667  0.266667  0.133333     48.000000
 -0.400000  0.266667  0.133333     48.000000
  0.466667  0.333333  0.133333     24.000000
 -0.466667  0.333333  0.133333     48.000000
 -0.400000  0.333333  0.133333     48.000000
 -0.333333  0.333333  0.133333     48.000000
 -0.266667  0.333333  0.133333     48.000000
 -0.200000  0.333333  0.133333     24.000000
 -0.466667  0.400000  0.133333     24.000000
 -0.400000  0.400000  0.133333     48.000000
 -0.333333  0.400000  0.133333     48.000000
 -0.266667  0.400000  0.133333     24.000000
 -0.400000  0.466667  0.133333     24.000000
 -0.333333  0.466667  0.133333     24.000000
 -0.400000  0.400000  0.200000     24.000000
 -0.333333  0.400000  0.200000     48.000000
 -0.333333  0.466667  0.200000     24.000000
 -0.266667  0.466667  0.200000     24.000000
 
 Following cartesian coordinates:
            Coordinates               Weight
  0.000000  0.000000  0.000000      1.000000
  0.066667  0.066667 -0.066667      8.000000
  0.133333  0.133333 -0.133333      8.000000
  0.200000  0.200000 -0.200000      8.000000
  0.266667  0.266667 -0.266667      8.000000
  0.333333  0.333333 -0.333333      8.000000
  0.400000  0.400000 -0.400000      8.000000
  0.466667  0.466667 -0.466667      8.000000
  0.000000  0.133333  0.000000      6.000000
  0.066667  0.200000 -0.066667     24.000000
  0.133333  0.266667 -0.133333     24.000000
  0.200000  0.333333 -0.200000     24.000000
  0.266667  0.400000 -0.266667     24.000000
  0.333333  0.466667 -0.333333     24.000000
  0.400000  0.533333 -0.400000     24.000000
 -0.533333 -0.400000  0.533333     24.000000
 -0.466667 -0.333333  0.466667     24.000000
 -0.400000 -0.266667  0.400000     24.000000
 -0.333333 -0.200000  0.333333     24.000000
 -0.266667 -0.133333  0.266667     24.000000
 -0.200000 -0.066667  0.200000     24.000000
 -0.133333  0.000000  0.133333     12.000000
  0.000000  0.266667  0.000000      6.000000
  0.066667  0.333333 -0.066667     24.000000
  0.133333  0.400000 -0.133333     24.000000
  0.200000  0.466667 -0.200000     24.000000
  0.266667  0.533333 -0.266667     24.000000
  0.333333  0.600000 -0.333333     24.000000
 -0.600000 -0.333333  0.600000     24.000000
 -0.533333 -0.266667  0.533333     24.000000
 -0.466667 -0.200000  0.466667     24.000000
 -0.400000 -0.133333  0.400000     24.000000
 -0.333333 -0.066667  0.333333     24.000000
 -0.266667  0.000000  0.266667     12.000000
  0.000000  0.400000  0.000000      6.000000
  0.066667  0.466667 -0.066667     24.000000
  0.133333  0.533333 -0.133333     24.000000
  0.200000  0.600000 -0.200000     24.000000
  0.266667  0.666667 -0.266667     24.000000
 -0.666667 -0.266667  0.666667     24.000000
 -0.600000 -0.200000  0.600000     24.000000
 -0.533333 -0.133333  0.533333     24.000000
 -0.466667 -0.066667  0.466667     24.000000
 -0.400000  0.000000  0.400000     12.000000
  0.000000  0.533333  0.000000      6.000000
  0.066667  0.600000 -0.066667     24.000000
  0.133333  0.666667 -0.133333     24.000000
  0.200000  0.733333 -0.200000     24.000000
 -0.733333 -0.200000  0.733333     24.000000
 -0.666667 -0.133333  0.666667     24.000000
 -0.600000 -0.066667  0.600000     24.000000
 -0.533333  0.000000  0.533333     12.000000
  0.000000  0.666667  0.000000      6.000000
  0.066667  0.733333 -0.066667     24.000000
  0.133333  0.800000 -0.133333     24.000000
 -0.800000 -0.133333  0.800000     24.000000
 -0.733333 -0.066667  0.733333     24.000000
 -0.666667  0.000000  0.666667     12.000000
  0.000000  0.800000  0.000000      6.000000
  0.066667  0.866667 -0.066667     24.000000
 -0.866667 -0.066667  0.866667     24.000000
 -0.800000  0.000000  0.800000     12.000000
  0.000000  0.933333  0.000000      6.000000
 -0.933333  0.000000  0.933333     12.000000
  0.133333  0.266667 -0.000000     24.000000
  0.200000  0.333333 -0.066667     48.000000
  0.266667  0.400000 -0.133333     48.000000
  0.333333  0.466667 -0.200000     48.000000
  0.400000  0.533333 -0.266667     48.000000
 -0.533333 -0.400000  0.666667     48.000000
  0.133333  0.400000  0.000000     24.000000
  0.200000  0.466667 -0.066667     48.000000
  0.266667  0.533333 -0.133333     48.000000
  0.333333  0.600000 -0.200000     48.000000
 -0.600000 -0.333333  0.733333     48.000000
 -0.533333 -0.266667  0.666667     48.000000
 -0.466667 -0.200000  0.600000     48.000000
 -0.400000 -0.133333  0.533333     48.000000
 -0.333333 -0.066667  0.466667     48.000000
 -0.266667  0.000000  0.400000     24.000000
  0.133333  0.533333  0.000000     24.000000
  0.200000  0.600000 -0.066667     48.000000
  0.266667  0.666667 -0.133333     48.000000
 -0.666667 -0.266667  0.800000     48.000000
 -0.600000 -0.200000  0.733333     48.000000
 -0.533333 -0.133333  0.666667     48.000000
 -0.466667 -0.066667  0.600000     48.000000
 -0.400000  0.000000  0.533333     24.000000
  0.133333  0.666667 -0.000000     24.000000
  0.200000  0.733333 -0.066667     48.000000
 -0.733333 -0.200000  0.866667     48.000000
 -0.666667 -0.133333  0.800000     48.000000
 -0.600000 -0.066667  0.733333     48.000000
 -0.533333  0.000000  0.666667     24.000000
  0.133333  0.800000  0.000000     24.000000
 -0.800000 -0.133333  0.933333     48.000000
 -0.733333 -0.066667  0.866667     48.000000
 -0.666667  0.000000  0.800000     24.000000
 -0.866667 -0.066667  1.000000     24.000000
 -0.800000  0.000000  0.933333     24.000000
  0.266667  0.533333  0.000000     24.000000
  0.333333  0.600000 -0.066667     48.000000
 -0.600000 -0.333333  0.866667     48.000000
 -0.533333 -0.266667  0.800000     48.000000
  0.266667  0.666667  0.000000     24.000000
 -0.666667 -0.266667  0.933333     48.000000
 -0.600000 -0.200000  0.866667     48.000000
 -0.533333 -0.133333  0.800000     48.000000
 -0.466667 -0.066667  0.733333     48.000000
 -0.400000  0.000000  0.666667     24.000000
 -0.733333 -0.200000  1.000000     24.000000
 -0.666667 -0.133333  0.933333     48.000000
 -0.600000 -0.066667  0.866667     48.000000
 -0.533333  0.000000  0.800000     24.000000
 -0.733333 -0.066667  1.000000     24.000000
 -0.666667  0.000000  0.933333     24.000000
 -0.600000 -0.200000  1.000000     24.000000
 -0.533333 -0.133333  0.933333     48.000000
 -0.600000 -0.066667  1.000000     24.000000
 -0.533333  0.000000  0.933333     24.000000
 


--------------------------------------------------------------------------------------------------------




 Dimension of arrays:
   k-points           NKPTS =    120   k-points in BZ     NKDIM =    120   number of bands    NBANDS=     16
   number of dos      NEDOS =    301   number of ions     NIONS =      1
   non local maximal  LDIM  =      4   non local SUM 2l+1 LMDIM =      8
   total plane-waves  NPLWV =   1000
   max r-space proj   IRMAX =      1   max aug-charges    IRDMAX=   2454
   dimension x,y,z NGX =    10 NGY =   10 NGZ =   10
   dimension x,y,z NGXF=    20 NGYF=   20 NGZF=   20
   support grid    NGXF=    20 NGYF=   20 NGZF=   20
   ions per type =               1
 NGX,Y,Z   is equivalent  to a cutoff of   6.03,  6.03,  6.03 a.u.
 NGXF,Y,Z  is equivalent  to a cutoff of  12.06, 12.06, 12.06 a.u.


 I would recommend the setting:
   dimension x,y,z NGX =    10 NGY =   10 NGZ =   10
 SYSTEM =  FCC Silicon                             
 POSCAR =  FCC Silicon                             

 Startparameter for this run:
   NWRITE =      2    write-flag & timer
   PREC   = normal    normal or accurate (medium, high low for compatibility)
   ISTART =      0    job   : 0-new  1-cont  2-samecut
   ICHARG =      2    charge: 1-file 2-atom 10-const
   ISPIN  =      1    spin polarized calculation?
   LNONCOLLINEAR =      F non collinear calculations
   LSORBIT =      F    spin-orbit coupling
   INIWAV =      1    electr: 0-lowe 1-rand  2-diag
   LASPH  =      F    aspherical Exc in radial PAW
   METAGGA=      F    non-selfconsistent MetaGGA calc.

 Electronic Relaxation 1
   ENCUT  =  240.0 eV  17.64 Ry    4.20 a.u.   3.48  3.48  3.48*2*pi/ulx,y,z
   ENINI  =  240.0     initial cutoff
   ENAUG  =  322.1 eV  augmentation charge cutoff
   NELM   =    100;   NELMIN=  4; NELMDL= -5     # of ELM steps 
   EDIFF  = 0.1E-05   stopping-criterion for ELM
   LREAL  =      F    real-space projection
   NLSPLINE    = F    spline interpolate recip. space projectors
   LCOMPAT=      F    compatible to vasp.4.4
   GGA_COMPAT  = T    GGA compatible to vasp.4.4-vasp.4.6
   LMAXPAW     = -100 max onsite density
   LMAXMIX     =    2 max onsite mixed and CHGCAR
   VOSKOWN=      0    Vosko Wilk Nusair interpolation
   ROPT   =    0.00000
 Ionic relaxation
   EDIFFG = 0.1E-04   stopping-criterion for IOM
   NSW    =      0    number of steps for IOM
   NBLOCK =      1;   KBLOCK =      1    inner block; outer block 
   IBRION =     -1    ionic relax: 0-MD 1-quasi-New 2-CG
   NFREE  =      0    steps in history (QN), initial steepest desc. (CG)
   ISIF   =      2    stress and relaxation
   IWAVPR =     10    prediction:  0-non 1-charg 2-wave 3-comb
   ISYM   =      2    0-nonsym 1-usesym 2-fastsym
   LCORR  =      T    Harris-Foulkes like correction to forces

   POTIM  = 0.5000    time-step for ionic-motion
   TEIN   =    0.0    initial temperature
   TEBEG  =    0.0;   TEEND  =   0.0 temperature during run
   SMASS  =  -3.00    Nose mass-parameter (am)
   estimated Nose-frequenzy (Omega)   =  0.10E-29 period in steps =****** mass=  -0.174E-27a.u.
   SCALEE = 1.0000    scale energy and forces
   NPACO  =    256;   APACO  = 16.0  distance and # of slots for P.C.
   PSTRESS=    0.0 pullay stress

  Mass of Ions in am
   POMASS =  28.09
  Ionic Valenz
   ZVAL   =   4.00
  Atomic Wigner-Seitz radii
   RWIGS  =  -1.00
  virtual crystal weights 
   VCA    =   1.00
   NELECT =       4.0000    total number of electrons
   NUPDOWN=      -1.0000    fix difference up-down

 DOS related values:
   EMIN   =  10.00;   EMAX   =-10.00  energy-range for DOS
   EFERMI =   0.00
   ISMEAR =     0;   SIGMA  =   0.10  broadening in eV -4-tet -1-fermi 0-gaus

 Electronic relaxation 2 (details)
   IALGO  =     38    algorithm
   LDIAG  =      T    sub-space diagonalisation (order eigenvalues)
   LSUBROT=      F    optimize rotation matrix (better conditioning)
   TURBO    =      0    0=normal 1=particle mesh
   IRESTART =      0    0=no restart 2=restart with 2 vectors
   NREBOOT  =      0    no. of reboots
   NMIN     =      0    reboot dimension
   EREF     =   0.00    reference energy to select bands
   IMIX   =      4    mixing-type and parameters
     AMIX     =   0.40;   BMIX     =  1.00
     AMIX_MAG =   1.60;   BMIX_MAG =  1.00
     AMIN     =   0.10
     WC   =   100.;   INIMIX=   1;  MIXPRE=   1;  MAXMIX= -45

 Intra band minimization:
   WEIMIN = 0.0000     energy-eigenvalue tresh-hold
   EBREAK =  0.16E-07  absolut break condition
   DEPER  =   0.30     relativ break condition  

   TIME   =   0.40     timestep for ELM

  volume/ion in A,a.u.               =      14.83       100.08
  Fermi-wavevector in a.u.,A,eV,Ry     =   1.057751  1.998860 15.222711  1.118838
  Thomas-Fermi vector in A             =   2.193036
 
 Write flags
   LWAVE  =      T    write WAVECAR
   LCHARG =      T    write CHGCAR
   LVTOT  =      F    write LOCPOT, total local potential
   LVHAR  =      F    write LOCPOT, Hartree potential only
   LELF   =      F    write electronic localiz. function (ELF)
   LORBIT =      0    0 simple, 1 ext, 2 COOP (PROOUT)


 Dipole corrections
   LMONO  =      F    monopole corrections only (constant potential shift)
   LDIPOL =      F    correct potential (dipole corrections)
   IDIPOL =      0    1-x, 2-y, 3-z, 4-all directions 
   EPSILON=  1.0000000 bulk dielectric constant

 Exchange correlation treatment:
   GGA     =    --    GGA type
   LEXCH   =     8    internal setting for exchange type
   VOSKOWN=      0    Vosko Wilk Nusair interpolation
   LHFCALC =     F    Hartree Fock is set to
   LHFONE  =     F    Hartree Fock one center treatment
   AEXX    =    0.0000 exact exchange contribution

 Linear response parameters
   LEPSILON=     F    determine dielectric tensor
   LRPA    =     F    only Hartree local field effects (RPA)
   LNABLA  =     F    use nabla operator in PAW spheres
   LVEL    =     F    velocity operator in full k-point grid
   LINTERFAST=   F  fast interpolation
   KINTER  =     0    interpolate to denser k-point grid
   CSHIFT  =0.1000    complex shift for real part using Kramers Kronig
   OMEGAMAX=  -1.0    maximum frequency
   DEG_THRESHOLD= 0.2000000E-02 threshold for treating states as degnerate
   RTIME   =    0.100 relaxation time in fs

 Orbital magnetization related:
   ORBITALMAG=     F  switch on orbital magnetization
   LCHIMAG   =     F  perturbation theory with respect to B field
   DQ        =  0.001000  dq finite difference perturbation B field



--------------------------------------------------------------------------------------------------------


 Static calculation
 charge density and potential will be updated during run
 non-spin polarized calculation
 Variant of blocked Davidson
 Davidson routine will perform the subspace rotation
 perform sub-space diagonalisation
    after iterative eigenvector-optimisation
 modified Broyden-mixing scheme, WC =      100.0
 initial mixing is a Kerker type mixing with AMIX =  0.4000 and BMIX =      1.0000
 Hartree-type preconditioning will be used
 using additional bands           14
 reciprocal scheme for non local part
 use partial core corrections
 calculate Harris-corrections to forces 
   (improved forces if not selfconsistent)
 use gradient corrections 
 use of overlap-Matrix (Vanderbilt PP)
 Gauss-broadening in eV      SIGMA  =   0.10


--------------------------------------------------------------------------------------------------------


  energy-cutoff  :      240.00
  volume of cell :       14.83
      direct lattice vectors                 reciprocal lattice vectors
     1.950000000  1.950000000  0.000000000     0.256410256  0.256410256 -0.256410256
     0.000000000  1.950000000  1.950000000    -0.256410256  0.256410256  0.256410256
     1.950000000  0.000000000  1.950000000     0.256410256 -0.256410256  0.256410256

  length of vectors
     2.757716447  2.757716447  2.757716447     0.444115592  0.444115592  0.444115592


 
 k-points in units of 2pi/SCALE and weight: K-points                                
   0.00000000  0.00000000  0.00000000       0.000
   0.06666667  0.06666667 -0.06666667       0.002
   0.13333333  0.13333333 -0.13333333       0.002
   0.20000000  0.20000000 -0.20000000       0.002
   0.26666667  0.26666667 -0.26666667       0.002
   0.33333333  0.33333333 -0.33333333       0.002
   0.40000000  0.40000000 -0.40000000       0.002
   0.46666667  0.46666667 -0.46666667       0.002
   0.00000000  0.13333333  0.00000000       0.002
   0.06666667  0.20000000 -0.06666667       0.007
   0.13333333  0.26666667 -0.13333333       0.007
   0.20000000  0.33333333 -0.20000000       0.007
   0.26666667  0.40000000 -0.26666667       0.007
   0.33333333  0.46666667 -0.33333333       0.007
   0.40000000  0.53333333 -0.40000000       0.007
  -0.53333333 -0.40000000  0.53333333       0.007
  -0.46666667 -0.33333333  0.46666667       0.007
  -0.40000000 -0.26666667  0.40000000       0.007
  -0.33333333 -0.20000000  0.33333333       0.007
  -0.26666667 -0.13333333  0.26666667       0.007
  -0.20000000 -0.06666667  0.20000000       0.007
  -0.13333333  0.00000000  0.13333333       0.004
   0.00000000  0.26666667  0.00000000       0.002
   0.06666667  0.33333333 -0.06666667       0.007
   0.13333333  0.40000000 -0.13333333       0.007
   0.20000000  0.46666667 -0.20000000       0.007
   0.26666667  0.53333333 -0.26666667       0.007
   0.33333333  0.60000000 -0.33333333       0.007
  -0.60000000 -0.33333333  0.60000000       0.007
  -0.53333333 -0.26666667  0.53333333       0.007
  -0.46666667 -0.20000000  0.46666667       0.007
  -0.40000000 -0.13333333  0.40000000       0.007
  -0.33333333 -0.06666667  0.33333333       0.007
  -0.26666667  0.00000000  0.26666667       0.004
   0.00000000  0.40000000  0.00000000       0.002
   0.06666667  0.46666667 -0.06666667       0.007
   0.13333333  0.53333333 -0.13333333       0.007
   0.20000000  0.60000000 -0.20000000       0.007
   0.26666667  0.66666667 -0.26666667       0.007
  -0.66666667 -0.26666667  0.66666667       0.007
  -0.60000000 -0.20000000  0.60000000       0.007
  -0.53333333 -0.13333333  0.53333333       0.007
  -0.46666667 -0.06666667  0.46666667       0.007
  -0.40000000  0.00000000  0.40000000       0.004
   0.00000000  0.53333333  0.00000000       0.002
   0.06666667  0.60000000 -0.06666667       0.007
   0.13333333  0.66666667 -0.13333333       0.007
   0.20000000  0.73333333 -0.20000000       0.007
  -0.73333333 -0.20000000  0.73333333       0.007
  -0.66666667 -0.13333333  0.66666667       0.007
  -0.60000000 -0.06666667  0.60000000       0.007
  -0.53333333  0.00000000  0.53333333       0.004
   0.00000000  0.66666667  0.00000000       0.002
   0.06666667  0.73333333 -0.06666667       0.007
   0.13333333  0.80000000 -0.13333333       0.007
  -0.80000000 -0.13333333  0.80000000       0.007
  -0.73333333 -0.06666667  0.73333333       0.007
  -0.66666667  0.00000000  0.66666667       0.004
   0.00000000  0.80000000  0.00000000       0.002
   0.06666667  0.86666667 -0.06666667       0.007
  -0.86666667 -0.06666667  0.86666667       0.007
  -0.80000000  0.00000000  0.80000000       0.004
   0.00000000  0.93333333  0.00000000       0.002
  -0.93333333  0.00000000  0.93333333       0.004
   0.13333333  0.26666667 -0.00000000       0.007
   0.20000000  0.33333333 -0.06666667       0.014
   0.26666667  0.40000000 -0.13333333       0.014
   0.33333333  0.46666667 -0.20000000       0.014
   0.40000000  0.53333333 -0.26666667       0.014
  -0.53333333 -0.40000000  0.66666667       0.014
   0.13333333  0.40000000  0.00000000       0.007
   0.20000000  0.46666667 -0.06666667       0.014
   0.26666667  0.53333333 -0.13333333       0.014
   0.33333333  0.60000000 -0.20000000       0.014
  -0.60000000 -0.33333333  0.73333333       0.014
  -0.53333333 -0.26666667  0.66666667       0.014
  -0.46666667 -0.20000000  0.60000000       0.014
  -0.40000000 -0.13333333  0.53333333       0.014
  -0.33333333 -0.06666667  0.46666667       0.014
  -0.26666667  0.00000000  0.40000000       0.007
   0.13333333  0.53333333  0.00000000       0.007
   0.20000000  0.60000000 -0.06666667       0.014
   0.26666667  0.66666667 -0.13333333       0.014
  -0.66666667 -0.26666667  0.80000000       0.014
  -0.60000000 -0.20000000  0.73333333       0.014
  -0.53333333 -0.13333333  0.66666667       0.014
  -0.46666667 -0.06666667  0.60000000       0.014
  -0.40000000  0.00000000  0.53333333       0.007
   0.13333333  0.66666667 -0.00000000       0.007
   0.20000000  0.73333333 -0.06666667       0.014
  -0.73333333 -0.20000000  0.86666667       0.014
  -0.66666667 -0.13333333  0.80000000       0.014
  -0.60000000 -0.06666667  0.73333333       0.014
  -0.53333333  0.00000000  0.66666667       0.007
   0.13333333  0.80000000  0.00000000       0.007
  -0.80000000 -0.13333333  0.93333333       0.014
  -0.73333333 -0.06666667  0.86666667       0.014
  -0.66666667  0.00000000  0.80000000       0.007
  -0.86666667 -0.06666667  1.00000000       0.007
  -0.80000000  0.00000000  0.93333333       0.007
   0.26666667  0.53333333  0.00000000       0.007
   0.33333333  0.60000000 -0.06666667       0.014
  -0.60000000 -0.33333333  0.86666667       0.014
  -0.53333333 -0.26666667  0.80000000       0.014
   0.26666667  0.66666667  0.00000000       0.007
  -0.66666667 -0.26666667  0.93333333       0.014
  -0.60000000 -0.20000000  0.86666667       0.014
  -0.53333333 -0.13333333  0.80000000       0.014
  -0.46666667 -0.06666667  0.73333333       0.014
  -0.40000000  0.00000000  0.66666667       0.007
  -0.73333333 -0.20000000  1.00000000       0.007
  -0.66666667 -0.13333333  0.93333333       0.014
  -0.60000000 -0.06666667  0.86666667       0.014
  -0.53333333  0.00000000  0.80000000       0.007
  -0.73333333 -0.06666667  1.00000000       0.007
  -0.66666667  0.00000000  0.93333333       0.007
  -0.60000000 -0.20000000  1.00000000       0.007
  -0.53333333 -0.13333333  0.93333333       0.014
  -0.60000000 -0.06666667  1.00000000       0.007
  -0.53333333  0.00000000  0.93333333       0.007
 
 k-points in reciprocal lattice and weights: K-points                                
   0.00000000  0.00000000  0.00000000       0.000
   0.06666667  0.00000000  0.00000000       0.002
   0.13333333  0.00000000  0.00000000       0.002
   0.20000000  0.00000000  0.00000000       0.002
   0.26666667  0.00000000  0.00000000       0.002
   0.33333333  0.00000000  0.00000000       0.002
   0.40000000  0.00000000  0.00000000       0.002
   0.46666667  0.00000000  0.00000000       0.002
   0.06666667  0.06666667  0.00000000       0.002
   0.13333333  0.06666667  0.00000000       0.007
   0.20000000  0.06666667  0.00000000       0.007
   0.26666667  0.06666667  0.00000000       0.007
   0.33333333  0.06666667  0.00000000       0.007
   0.40000000  0.06666667  0.00000000       0.007
   0.46666667  0.06666667  0.00000000       0.007
  -0.46666667  0.06666667  0.00000000       0.007
  -0.40000000  0.06666667  0.00000000       0.007
  -0.33333333  0.06666667  0.00000000       0.007
  -0.26666667  0.06666667  0.00000000       0.007
  -0.20000000  0.06666667  0.00000000       0.007
  -0.13333333  0.06666667  0.00000000       0.007
  -0.06666667  0.06666667  0.00000000       0.004
   0.13333333  0.13333333  0.00000000       0.002
   0.20000000  0.13333333  0.00000000       0.007
   0.26666667  0.13333333  0.00000000       0.007
   0.33333333  0.13333333  0.00000000       0.007
   0.40000000  0.13333333  0.00000000       0.007
   0.46666667  0.13333333  0.00000000       0.007
  -0.46666667  0.13333333  0.00000000       0.007
  -0.40000000  0.13333333  0.00000000       0.007
  -0.33333333  0.13333333  0.00000000       0.007
  -0.26666667  0.13333333  0.00000000       0.007
  -0.20000000  0.13333333  0.00000000       0.007
  -0.13333333  0.13333333  0.00000000       0.004
   0.20000000  0.20000000  0.00000000       0.002
   0.26666667  0.20000000  0.00000000       0.007
   0.33333333  0.20000000  0.00000000       0.007
   0.40000000  0.20000000  0.00000000       0.007
   0.46666667  0.20000000  0.00000000       0.007
  -0.46666667  0.20000000  0.00000000       0.007
  -0.40000000  0.20000000  0.00000000       0.007
  -0.33333333  0.20000000  0.00000000       0.007
  -0.26666667  0.20000000  0.00000000       0.007
  -0.20000000  0.20000000  0.00000000       0.004
   0.26666667  0.26666667  0.00000000       0.002
   0.33333333  0.26666667  0.00000000       0.007
   0.40000000  0.26666667  0.00000000       0.007
   0.46666667  0.26666667  0.00000000       0.007
  -0.46666667  0.26666667  0.00000000       0.007
  -0.40000000  0.26666667  0.00000000       0.007
  -0.33333333  0.26666667  0.00000000       0.007
  -0.26666667  0.26666667  0.00000000       0.004
   0.33333333  0.33333333  0.00000000       0.002
   0.40000000  0.33333333  0.00000000       0.007
   0.46666667  0.33333333  0.00000000       0.007
  -0.46666667  0.33333333  0.00000000       0.007
  -0.40000000  0.33333333  0.00000000       0.007
  -0.33333333  0.33333333  0.00000000       0.004
   0.40000000  0.40000000  0.00000000       0.002
   0.46666667  0.40000000  0.00000000       0.007
  -0.46666667  0.40000000  0.00000000       0.007
  -0.40000000  0.40000000  0.00000000       0.004
   0.46666667  0.46666667  0.00000000       0.002
  -0.46666667  0.46666667  0.00000000       0.004
   0.20000000  0.13333333  0.06666667       0.007
   0.26666667  0.13333333  0.06666667       0.014
   0.33333333  0.13333333  0.06666667       0.014
   0.40000000  0.13333333  0.06666667       0.014
   0.46666667  0.13333333  0.06666667       0.014
  -0.46666667  0.13333333  0.06666667       0.014
   0.26666667  0.20000000  0.06666667       0.007
   0.33333333  0.20000000  0.06666667       0.014
   0.40000000  0.20000000  0.06666667       0.014
   0.46666667  0.20000000  0.06666667       0.014
  -0.46666667  0.20000000  0.06666667       0.014
  -0.40000000  0.20000000  0.06666667       0.014
  -0.33333333  0.20000000  0.06666667       0.014
  -0.26666667  0.20000000  0.06666667       0.014
  -0.20000000  0.20000000  0.06666667       0.014
  -0.13333333  0.20000000  0.06666667       0.007
   0.33333333  0.26666667  0.06666667       0.007
   0.40000000  0.26666667  0.06666667       0.014
   0.46666667  0.26666667  0.06666667       0.014
  -0.46666667  0.26666667  0.06666667       0.014
  -0.40000000  0.26666667  0.06666667       0.014
  -0.33333333  0.26666667  0.06666667       0.014
  -0.26666667  0.26666667  0.06666667       0.014
  -0.20000000  0.26666667  0.06666667       0.007
   0.40000000  0.33333333  0.06666667       0.007
   0.46666667  0.33333333  0.06666667       0.014
  -0.46666667  0.33333333  0.06666667       0.014
  -0.40000000  0.33333333  0.06666667       0.014
  -0.33333333  0.33333333  0.06666667       0.014
  -0.26666667  0.33333333  0.06666667       0.007
   0.46666667  0.40000000  0.06666667       0.007
  -0.46666667  0.40000000  0.06666667       0.014
  -0.40000000  0.40000000  0.06666667       0.014
  -0.33333333  0.40000000  0.06666667       0.007
  -0.46666667  0.46666667  0.06666667       0.007
  -0.40000000  0.46666667  0.06666667       0.007
   0.40000000  0.26666667  0.13333333       0.007
   0.46666667  0.26666667  0.13333333       0.014
  -0.46666667  0.26666667  0.13333333       0.014
  -0.40000000  0.26666667  0.13333333       0.014
   0.46666667  0.33333333  0.13333333       0.007
  -0.46666667  0.33333333  0.13333333       0.014
  -0.40000000  0.33333333  0.13333333       0.014
  -0.33333333  0.33333333  0.13333333       0.014
  -0.26666667  0.33333333  0.13333333       0.014
  -0.20000000  0.33333333  0.13333333       0.007
  -0.46666667  0.40000000  0.13333333       0.007
  -0.40000000  0.40000000  0.13333333       0.014
  -0.33333333  0.40000000  0.13333333       0.014
  -0.26666667  0.40000000  0.13333333       0.007
  -0.40000000  0.46666667  0.13333333       0.007
  -0.33333333  0.46666667  0.13333333       0.007
  -0.40000000  0.40000000  0.20000000       0.007
  -0.33333333  0.40000000  0.20000000       0.014
  -0.33333333  0.46666667  0.20000000       0.007
  -0.26666667  0.46666667  0.20000000       0.007
 
 position of ions in fractional coordinates (direct lattice) 
   0.00000000  0.00000000  0.00000000
 
 position of ions in cartesian coordinates  (Angst):
   0.00000000  0.00000000  0.00000000
 


--------------------------------------------------------------------------------------------------------


 k-point  1 :   0.0000 0.0000 0.0000  plane waves:     137
 k-point  2 :   0.0667 0.0000 0.0000  plane waves:     128
 k-point  3 :   0.1333 0.0000 0.0000  plane waves:     128
 k-point  4 :   0.2000 0.0000 0.0000  plane waves:     129
 k-point  5 :   0.2667 0.0000 0.0000  plane waves:     132
 k-point  6 :   0.3333 0.0000 0.0000  plane waves:     126
 k-point  7 :   0.4000 0.0000 0.0000  plane waves:     123
 k-point  8 :   0.4667 0.0000 0.0000  plane waves:     120
 k-point  9 :   0.0667 0.0667 0.0000  plane waves:     125
 k-point 10 :   0.1333 0.0667 0.0000  plane waves:     127
 k-point 11 :   0.2000 0.0667 0.0000  plane waves:     127
 k-point 12 :   0.2667 0.0667 0.0000  plane waves:     131
 k-point 13 :   0.3333 0.0667 0.0000  plane waves:     129
 k-point 14 :   0.4000 0.0667 0.0000  plane waves:     125
 k-point 15 :   0.4667 0.0667 0.0000  plane waves:     125
 k-point 16 :  -0.4667 0.0667 0.0000  plane waves:     129
 k-point 17 :  -0.4000 0.0667 0.0000  plane waves:     126
 k-point 18 :  -0.3333 0.0667 0.0000  plane waves:     129
 k-point 19 :  -0.2667 0.0667 0.0000  plane waves:     133
 k-point 20 :  -0.2000 0.0667 0.0000  plane waves:     130
 k-point 21 :  -0.1333 0.0667 0.0000  plane waves:     125
 k-point 22 :  -0.0667 0.0667 0.0000  plane waves:     127
 k-point 23 :   0.1333 0.1333 0.0000  plane waves:     125
 k-point 24 :   0.2000 0.1333 0.0000  plane waves:     129
 k-point 25 :   0.2667 0.1333 0.0000  plane waves:     132
 k-point 26 :   0.3333 0.1333 0.0000  plane waves:     130
 k-point 27 :   0.4000 0.1333 0.0000  plane waves:     130
 k-point 28 :   0.4667 0.1333 0.0000  plane waves:     125
 k-point 29 :  -0.4667 0.1333 0.0000  plane waves:     125
 k-point 30 :  -0.4000 0.1333 0.0000  plane waves:     127
 k-point 31 :  -0.3333 0.1333 0.0000  plane waves:     128
 k-point 32 :  -0.2667 0.1333 0.0000  plane waves:     130
 k-point 33 :  -0.2000 0.1333 0.0000  plane waves:     131
 k-point 34 :  -0.1333 0.1333 0.0000  plane waves:     133
 k-point 35 :   0.2000 0.2000 0.0000  plane waves:     129
 k-point 36 :   0.2667 0.2000 0.0000  plane waves:     130
 k-point 37 :   0.3333 0.2000 0.0000  plane waves:     130
 k-point 38 :   0.4000 0.2000 0.0000  plane waves:     124
 k-point 39 :   0.4667 0.2000 0.0000  plane waves:     126
 k-point 40 :  -0.4667 0.2000 0.0000  plane waves:     125
 k-point 41 :  -0.4000 0.2000 0.0000  plane waves:     125
 k-point 42 :  -0.3333 0.2000 0.0000  plane waves:     127
 k-point 43 :  -0.2667 0.2000 0.0000  plane waves:     129
 k-point 44 :  -0.2000 0.2000 0.0000  plane waves:     131
 k-point 45 :   0.2667 0.2667 0.0000  plane waves:     129
 k-point 46 :   0.3333 0.2667 0.0000  plane waves:     128
 k-point 47 :   0.4000 0.2667 0.0000  plane waves:     126
 k-point 48 :   0.4667 0.2667 0.0000  plane waves:     124
 k-point 49 :  -0.4667 0.2667 0.0000  plane waves:     125
 k-point 50 :  -0.4000 0.2667 0.0000  plane waves:     123
 k-point 51 :  -0.3333 0.2667 0.0000  plane waves:     126
 k-point 52 :  -0.2667 0.2667 0.0000  plane waves:     126
 k-point 53 :   0.3333 0.3333 0.0000  plane waves:     129
 k-point 54 :   0.4000 0.3333 0.0000  plane waves:     127
 k-point 55 :   0.4667 0.3333 0.0000  plane waves:     122
 k-point 56 :  -0.4667 0.3333 0.0000  plane waves:     124
 k-point 57 :  -0.4000 0.3333 0.0000  plane waves:     122
 k-point 58 :  -0.3333 0.3333 0.0000  plane waves:     122
 k-point 59 :   0.4000 0.4000 0.0000  plane waves:     121
 k-point 60 :   0.4667 0.4000 0.0000  plane waves:     119
 k-point 61 :  -0.4667 0.4000 0.0000  plane waves:     118
 k-point 62 :  -0.4000 0.4000 0.0000  plane waves:     120
 k-point 63 :   0.4667 0.4667 0.0000  plane waves:     116
 k-point 64 :  -0.4667 0.4667 0.0000  plane waves:     116
 k-point 65 :   0.2000 0.1333 0.0667  plane waves:     129
 k-point 66 :   0.2667 0.1333 0.0667  plane waves:     131
 k-point 67 :   0.3333 0.1333 0.0667  plane waves:     133
 k-point 68 :   0.4000 0.1333 0.0667  plane waves:     129
 k-point 69 :   0.4667 0.1333 0.0667  plane waves:     125
 k-point 70 :  -0.4667 0.1333 0.0667  plane waves:     125
 k-point 71 :   0.2667 0.2000 0.0667  plane waves:     131
 k-point 72 :   0.3333 0.2000 0.0667  plane waves:     132
 k-point 73 :   0.4000 0.2000 0.0667  plane waves:     128
 k-point 74 :   0.4667 0.2000 0.0667  plane waves:     126
 k-point 75 :  -0.4667 0.2000 0.0667  plane waves:     122
 k-point 76 :  -0.4000 0.2000 0.0667  plane waves:     124
 k-point 77 :  -0.3333 0.2000 0.0667  plane waves:     126
 k-point 78 :  -0.2667 0.2000 0.0667  plane waves:     130
 k-point 79 :  -0.2000 0.2000 0.0667  plane waves:     129
 k-point 80 :  -0.1333 0.2000 0.0667  plane waves:     132
 k-point 81 :   0.3333 0.2667 0.0667  plane waves:     128
 k-point 82 :   0.4000 0.2667 0.0667  plane waves:     126
 k-point 83 :   0.4667 0.2667 0.0667  plane waves:     124
 k-point 84 :  -0.4667 0.2667 0.0667  plane waves:     124
 k-point 85 :  -0.4000 0.2667 0.0667  plane waves:     122
 k-point 86 :  -0.3333 0.2667 0.0667  plane waves:     126
 k-point 87 :  -0.2667 0.2667 0.0667  plane waves:     127
 k-point 88 :  -0.2000 0.2667 0.0667  plane waves:     127
 k-point 89 :   0.4000 0.3333 0.0667  plane waves:     129
 k-point 90 :   0.4667 0.3333 0.0667  plane waves:     126
 k-point 91 :  -0.4667 0.3333 0.0667  plane waves:     126
 k-point 92 :  -0.4000 0.3333 0.0667  plane waves:     121
 k-point 93 :  -0.3333 0.3333 0.0667  plane waves:     121
 k-point 94 :  -0.2667 0.3333 0.0667  plane waves:     126
 k-point 95 :   0.4667 0.4000 0.0667  plane waves:     124
 k-point 96 :  -0.4667 0.4000 0.0667  plane waves:     125
 k-point 97 :  -0.4000 0.4000 0.0667  plane waves:     124
 k-point 98 :  -0.3333 0.4000 0.0667  plane waves:     121
 k-point 99 :  -0.4667 0.4667 0.0667  plane waves:     117
 k-point ** :  -0.4000 0.4667 0.0667  plane waves:     120
 k-point ** :   0.4000 0.2667 0.1333  plane waves:     127
 k-point ** :   0.4667 0.2667 0.1333  plane waves:     126
 k-point ** :  -0.4667 0.2667 0.1333  plane waves:     123
 k-point ** :  -0.4000 0.2667 0.1333  plane waves:     123
 k-point ** :   0.4667 0.3333 0.1333  plane waves:     126
 k-point ** :  -0.4667 0.3333 0.1333  plane waves:     124
 k-point ** :  -0.4000 0.3333 0.1333  plane waves:     119
 k-point ** :  -0.3333 0.3333 0.1333  plane waves:     120
 k-point ** :  -0.2667 0.3333 0.1333  plane waves:     123
 k-point ** :  -0.2000 0.3333 0.1333  plane waves:     125
 k-point ** :  -0.4667 0.4000 0.1333  plane waves:     125
 k-point ** :  -0.4000 0.4000 0.1333  plane waves:     123
 k-point ** :  -0.3333 0.4000 0.1333  plane waves:     122
 k-point ** :  -0.2667 0.4000 0.1333  plane waves:     123
 k-point ** :  -0.4000 0.4667 0.1333  plane waves:     122
 k-point ** :  -0.3333 0.4667 0.1333  plane waves:     122
 k-point ** :  -0.4000 0.4000 0.2000  plane waves:     123
 k-point ** :  -0.3333 0.4000 0.2000  plane waves:     118
 k-point ** :  -0.3333 0.4667 0.2000  plane waves:     116
 k-point ** :  -0.2667 0.4667 0.2000  plane waves:     116

 maximum and minimum number of plane-waves per node :       137      116

 maximum number of plane-waves:       137
 maximum index in each direction: 
   IXMAX=    3   IYMAX=    3   IZMAX=    3
   IXMIN=   -3   IYMIN=   -3   IZMIN=   -3

 WARNING: aliasing errors must be expected set NGX to  14 to avoid them
 WARNING: aliasing errors must be expected set NGY to  14 to avoid them
 WARNING: aliasing errors must be expected set NGZ to  14 to avoid them
 aliasing errors are usually negligible using standard VASP settings
 and one can safely disregard these warnings

 serial   3D FFT for wavefunctions
 parallel 3D FFT for charge:
    minimum data exchange during FFTs selected (reduces bandwidth)


 total amount of memory used by VASP on root node    31527. kBytes
========================================================================

   base      :      30000. kBytes
   nonl-proj :       1108. kBytes
   fftplans  :         27. kBytes
   grid      :         82. kBytes
   one-center:          3. kBytes
   wavefun   :        307. kBytes
 
     INWAV:  cpu time    0.0010: real time    0.0003
 Broyden mixing: mesh for mixing (old mesh)
   NGX =  7   NGY =  7   NGZ =  7
  (NGX  = 20   NGY  = 20   NGZ  = 20)
  gives a total of    343 points

 initial charge density was supplied:
 charge density of overlapping atoms calculated
 number of electron       4.0000000 magnetization 
 keeping initial charge density in first step


--------------------------------------------------------------------------------------------------------


 Maximum index for augmentation-charges          331 (set IRDMAX)


--------------------------------------------------------------------------------------------------------


 First call to EWALD:  gamma=   0.721
 Maximum number of real-space cells 3x 3x 3
 Maximum number of reciprocal cells 3x 3x 3

 FEWALD executed in parallel
    FEWALD:  cpu time    0.0020: real time    0.0019


----------------------------------------- Iteration    1(   1)  ---------------------------------------


    POTLOK:  cpu time    0.0010: real time    0.0018
    SETDIJ:  cpu time    0.0010: real time    0.0015
     EDDAV:  cpu time    0.4459: real time    0.4460
       DOS:  cpu time    0.0010: real time    0.0008
    --------------------------------------------
      LOOP:  cpu time    0.4499: real time    0.5130

 eigenvalue-minimisations  :  5264
 total energy-change (2. order) :-0.4662323E+01  (-0.1176477E+03)
 number of electron       4.0000000 magnetization 
 augmentation part        4.0000000 magnetization 

 Free energy of the ion-electron system (eV)
  ---------------------------------------------------
  alpha Z        PSCENC =         2.26996938
  Ewald energy   TEWEN  =      -135.42777035
  -Hartree energ DENC   =        -0.65300110
  -exchange      EXHF   =         0.00000000
  -V(xc)+E(xc)   XCENC  =        -8.87078791
  PAW double counting   =        32.97760406      -15.38426339
  entropy T*S    EENTRO =        -0.00235120
  eigenvalues    EBANDS =        17.36750053
  atomic energy  EATOM  =       103.06077658
  Solvation  Ediel_sol  =         0.00000000
  ---------------------------------------------------
  free energy    TOTEN  =        -4.66232341 eV

  energy without entropy =       -4.65997221  energy(sigma->0) =       -4.66114781


--------------------------------------------------------------------------------------------------------




----------------------------------------- Iteration    1(   2)  ---------------------------------------


     EDDAV:  cpu time    0.4249: real time    0.4252
       DOS:  cpu time    0.0000: real time    0.0007
    --------------------------------------------
      LOOP:  cpu time    0.4259: real time    0.4343

 eigenvalue-minimisations  :  4992
 total energy-change (2. order) :-0.2213476E+00  (-0.2193843E+00)
 number of electron       4.0000000 magnetization 
 augmentation part        4.0000000 magnetization 

 Free energy of the ion-electron system (eV)
  ---------------------------------------------------
  alpha Z        PSCENC =         2.26996938
  Ewald energy   TEWEN  =      -135.42777035
  -Hartree energ DENC   =        -0.65300110
  -exchange      EXHF   =         0.00000000
  -V(xc)+E(xc)   XCENC  =        -8.87078791
  PAW double counting   =        32.97760406      -15.38426339
  entropy T*S    EENTRO =        -0.00326415
  eigenvalues    EBANDS =        17.14706586
  atomic energy  EATOM  =       103.06077658
  Solvation  Ediel_sol  =         0.00000000
  ---------------------------------------------------
  free energy    TOTEN  =        -4.88367103 eV

  energy without entropy =       -4.88040688  energy(sigma->0) =       -4.88203896


--------------------------------------------------------------------------------------------------------




----------------------------------------- Iteration    1(   3)  ---------------------------------------


     EDDAV:  cpu time    0.4639: real time    0.4646
       DOS:  cpu time    0.0010: real time    0.0007
    --------------------------------------------
      LOOP:  cpu time    0.4659: real time    0.4696

 eigenvalue-minimisations  :  5200
 total energy-change (2. order) :-0.5805204E-04  (-0.5805187E-04)
 number of electron       4.0000000 magnetization 
 augmentation part        4.0000000 magnetization 

 Free energy of the ion-electron system (eV)
  ---------------------------------------------------
  alpha Z        PSCENC =         2.26996938
  Ewald energy   TEWEN  =      -135.42777035
  -Hartree energ DENC   =        -0.65300110
  -exchange      EXHF   =         0.00000000
  -V(xc)+E(xc)   XCENC  =        -8.87078791
  PAW double counting   =        32.97760406      -15.38426339
  entropy T*S    EENTRO =        -0.00326394
  eigenvalues    EBANDS =        17.14700760
  atomic energy  EATOM  =       103.06077658
  Solvation  Ediel_sol  =         0.00000000
  ---------------------------------------------------
  free energy    TOTEN  =        -4.88372909 eV

  energy without entropy =       -4.88046514  energy(sigma->0) =       -4.88209711


--------------------------------------------------------------------------------------------------------




----------------------------------------- Iteration    1(   4)  ---------------------------------------


     EDDAV:  cpu time    0.4899: real time    0.4902
       DOS:  cpu time    0.0000: real time    0.0007
    --------------------------------------------
      LOOP:  cpu time    0.4899: real time    0.4952

 eigenvalue-minimisations  :  5408
 total energy-change (2. order) :-0.5600810E-08  (-0.4266975E-08)
 number of electron       4.0000000 magnetization 
 augmentation part        4.0000000 magnetization 

 Free energy of the ion-electron system (eV)
  ---------------------------------------------------
  alpha Z        PSCENC =         2.26996938
  Ewald energy   TEWEN  =      -135.42777035
  -Hartree energ DENC   =        -0.65300110
  -exchange      EXHF   =         0.00000000
  -V(xc)+E(xc)   XCENC  =        -8.87078791
  PAW double counting   =        32.97760406      -15.38426339
  entropy T*S    EENTRO =        -0.00326394
  eigenvalues    EBANDS =        17.14700759
  atomic energy  EATOM  =       103.06077658
  Solvation  Ediel_sol  =         0.00000000
  ---------------------------------------------------
  free energy    TOTEN  =        -4.88372909 eV

  energy without entropy =       -4.88046515  energy(sigma->0) =       -4.88209712


--------------------------------------------------------------------------------------------------------




----------------------------------------- Iteration    1(   5)  ---------------------------------------


     EDDAV:  cpu time    0.4639: real time    0.4653
       DOS:  cpu time    0.0010: real time    0.0006
    CHARGE:  cpu time    0.0020: real time    0.0021
    MIXING:  cpu time    0.0010: real time    0.0003
    --------------------------------------------
      LOOP:  cpu time    0.4699: real time    0.4763

 eigenvalue-minimisations  :  5200
 total energy-change (2. order) : 0.9078462E-09  (-0.2196610E-13)
 number of electron       4.0000010 magnetization 
 augmentation part       -0.2416856 magnetization 

 Broyden mixing:
  rms(total) = 0.77126E-01    rms(broyden)= 0.77112E-01
  rms(prec ) = 0.30663E+00
  weight for this iteration     100.00

 Free energy of the ion-electron system (eV)
  ---------------------------------------------------
  alpha Z        PSCENC =         2.26996938
  Ewald energy   TEWEN  =      -135.42777035
  -Hartree energ DENC   =        -0.65300110
  -exchange      EXHF   =         0.00000000
  -V(xc)+E(xc)   XCENC  =        -8.87078791
  PAW double counting   =        32.97760406      -15.38426339
  entropy T*S    EENTRO =        -0.00326394
  eigenvalues    EBANDS =        17.14700759
  atomic energy  EATOM  =       103.06077658
  Solvation  Ediel_sol  =         0.00000000
  ---------------------------------------------------
  free energy    TOTEN  =        -4.88372909 eV

  energy without entropy =       -4.88046515  energy(sigma->0) =       -4.88209712


--------------------------------------------------------------------------------------------------------




----------------------------------------- Iteration    1(   6)  ---------------------------------------


    POTLOK:  cpu time    0.0010: real time    0.0012
    SETDIJ:  cpu time    0.0010: real time    0.0013
     EDDAV:  cpu time    0.3300: real time    0.3299
       DOS:  cpu time    0.0010: real time    0.0007
    CHARGE:  cpu time    0.0020: real time    0.0019
    MIXING:  cpu time    0.0000: real time    0.0003
    --------------------------------------------
      LOOP:  cpu time    0.3349: real time    0.3397

 eigenvalue-minimisations  :  4272
 total energy-change (2. order) : 0.1283205E-01  (-0.4076594E-03)
 number of electron       4.0000010 magnetization 
 augmentation part       -0.2439507 magnetization 

 Broyden mixing:
  rms(total) = 0.46068E-01    rms(broyden)= 0.46067E-01
  rms(prec ) = 0.18296E+00
  weight for this iteration     100.00

 eigenvalues of (default mixing * dielectric matrix)
  average eigenvalue GAMMA=   2.4736
  2.4736

 Free energy of the ion-electron system (eV)
  ---------------------------------------------------
  alpha Z        PSCENC =         2.26996938
  Ewald energy   TEWEN  =      -135.42777035
  -Hartree energ DENC   =        -0.57257161
  -exchange      EXHF   =         0.00000000
  -V(xc)+E(xc)   XCENC  =        -8.85186098
  PAW double counting   =        33.32795252      -15.73293770
  entropy T*S    EENTRO =        -0.00325942
  eigenvalues    EBANDS =        17.05880456
  atomic energy  EATOM  =       103.06077658
  Solvation  Ediel_sol  =         0.00000000
  ---------------------------------------------------
  free energy    TOTEN  =        -4.87089704 eV

  energy without entropy =       -4.86763762  energy(sigma->0) =       -4.86926733


--------------------------------------------------------------------------------------------------------




----------------------------------------- Iteration    1(   7)  ---------------------------------------


    POTLOK:  cpu time    0.0000: real time    0.0012
    SETDIJ:  cpu time    0.0010: real time    0.0012
     EDDAV:  cpu time    0.3319: real time    0.3323
       DOS:  cpu time    0.0010: real time    0.0007
    CHARGE:  cpu time    0.0020: real time    0.0019
    MIXING:  cpu time    0.0000: real time    0.0002
    --------------------------------------------
      LOOP:  cpu time    0.3379: real time    0.3418

 eigenvalue-minimisations  :  4304
 total energy-change (2. order) : 0.7305945E-02  (-0.8977253E-03)
 number of electron       4.0000010 magnetization 
 augmentation part       -0.2473681 magnetization 

 Broyden mixing:
  rms(total) = 0.25598E-02    rms(broyden)= 0.25581E-02
  rms(prec ) = 0.79583E-02
  weight for this iteration     100.00

 eigenvalues of (default mixing * dielectric matrix)
  average eigenvalue GAMMA=   2.4768
  2.4768  2.4768

 Free energy of the ion-electron system (eV)
  ---------------------------------------------------
  alpha Z        PSCENC =         2.26996938
  Ewald energy   TEWEN  =      -135.42777035
  -Hartree energ DENC   =        -0.48346593
  -exchange      EXHF   =         0.00000000
  -V(xc)+E(xc)   XCENC  =        -8.81956071
  PAW double counting   =        33.89763336      -16.30472363
  entropy T*S    EENTRO =        -0.00325079
  eigenvalues    EBANDS =        16.94680100
  atomic energy  EATOM  =       103.06077658
  Solvation  Ediel_sol  =         0.00000000
  ---------------------------------------------------
  free energy    TOTEN  =        -4.86359109 eV

  energy without entropy =       -4.86034030  energy(sigma->0) =       -4.86196570


--------------------------------------------------------------------------------------------------------




----------------------------------------- Iteration    1(   8)  ---------------------------------------


    POTLOK:  cpu time    0.0010: real time    0.0012
    SETDIJ:  cpu time    0.0020: real time    0.0012
     EDDAV:  cpu time    0.3529: real time    0.3533
       DOS:  cpu time    0.0000: real time    0.0006
    CHARGE:  cpu time    0.0020: real time    0.0019
    MIXING:  cpu time    0.0010: real time    0.0002
    --------------------------------------------
      LOOP:  cpu time    0.3589: real time    0.3667

 eigenvalue-minimisations  :  4400
 total energy-change (2. order) : 0.1803776E-04  (-0.2010044E-05)
 number of electron       4.0000010 magnetization 
 augmentation part       -0.2472808 magnetization 

 Broyden mixing:
  rms(total) = 0.44354E-03    rms(broyden)= 0.44322E-03
  rms(prec ) = 0.15664E-02
  weight for this iteration     100.00

 eigenvalues of (default mixing * dielectric matrix)
  average eigenvalue GAMMA=   2.0003
  1.0104  2.6542  2.3364

 Free energy of the ion-electron system (eV)
  ---------------------------------------------------
  alpha Z        PSCENC =         2.26996938
  Ewald energy   TEWEN  =      -135.42777035
  -Hartree energ DENC   =        -0.48878450
  -exchange      EXHF   =         0.00000000
  -V(xc)+E(xc)   XCENC  =        -8.81755446
  PAW double counting   =        34.00508685      -16.41853372
  entropy T*S    EENTRO =        -0.00325431
  eigenvalues    EBANDS =        16.95649149
  atomic energy  EATOM  =       103.06077658
  Solvation  Ediel_sol  =         0.00000000
  ---------------------------------------------------
  free energy    TOTEN  =        -4.86357306 eV

  energy without entropy =       -4.86031874  energy(sigma->0) =       -4.86194590


--------------------------------------------------------------------------------------------------------




----------------------------------------- Iteration    1(   9)  ---------------------------------------


    POTLOK:  cpu time    0.0010: real time    0.0012
    SETDIJ:  cpu time    0.0010: real time    0.0013
     EDDAV:  cpu time    0.5249: real time    0.5246
       DOS:  cpu time    0.0000: real time    0.0007
    --------------------------------------------
      LOOP:  cpu time    0.5269: real time    0.5321

 eigenvalue-minimisations  :  5600
 total energy-change (2. order) :-0.7745629E-06  (-0.2246907E-07)
 number of electron       4.0000010 magnetization 
 augmentation part       -0.2472808 magnetization 

 Free energy of the ion-electron system (eV)
  ---------------------------------------------------
  alpha Z        PSCENC =         2.26996938
  Ewald energy   TEWEN  =      -135.42777035
  -Hartree energ DENC   =        -0.48916008
  -exchange      EXHF   =         0.00000000
  -V(xc)+E(xc)   XCENC  =        -8.81703123
  PAW double counting   =        34.02115165      -16.43548729
  entropy T*S    EENTRO =        -0.00325478
  eigenvalues    EBANDS =        16.95723230
  atomic energy  EATOM  =       103.06077658
  Solvation  Ediel_sol  =         0.00000000
  ---------------------------------------------------
  free energy    TOTEN  =        -4.86357383 eV

  energy without entropy =       -4.86031905  energy(sigma->0) =       -4.86194644


--------------------------------------------------------------------------------------------------------




 average (electrostatic) potential at core
  the test charge radii are     0.9892
  (the norm of the test charge is              1.0000)
       1 -80.2457
 
 
 
 E-fermi :   9.8480     XC(G=0): -11.0966     alpha+bet :-16.1732


 k-point     1 :       0.0000    0.0000    0.0000
  band No.  band energies     occupation 
      1      -4.3786      2.00000
      2      20.6939      0.00000
      3      20.6941      0.00000
      4      20.6941      0.00000
      5      21.7705      0.00000
      6      21.7706      0.00000
      7      21.7706      0.00000
      8      26.9780      0.00000
      9      28.5750      0.00000
     10      28.5750      0.00000
     11      31.6948      0.00000
     12      34.8834      0.00000
     13      34.8834      0.00000
     14      34.8834      0.00000
     15      41.9994      0.00000
     16      62.8212      0.00000

 k-point     2 :       0.0667    0.0000    0.0000
  band No.  band energies     occupation 
      1      -4.2511      2.00000
      2      18.7111      0.00000
      3      20.1220      0.00000
      4      20.1221      0.00000
      5      22.5310      0.00000
      6      22.5311      0.00000
      7      22.6894      0.00000
      8      28.0059      0.00000
      9      28.0059      0.00000
     10      28.0213      0.00000
     11      31.4799      0.00000
     12      35.0684      0.00000
     13      35.7946      0.00000
     14      35.7947      0.00000
     15      42.7361      0.00000
     16      61.4465      0.00000

 k-point     3 :       0.1333    0.0000    0.0000
  band No.  band energies     occupation 
      1      -3.8697      2.00000
      2      15.9430      0.00000
      3      19.3904      0.00000
      4      19.3906      0.00000
      5      22.9485      0.00000
      6      23.5806      0.00000
      7      23.5809      0.00000
      8      26.9729      0.00000
      9      26.9732      0.00000
     10      30.1856      0.00000
     11      30.8057      0.00000
     12      36.1424      0.00000
     13      37.8921      0.00000
     14      37.8922      0.00000
     15      44.6015      0.00000
     16      57.9381      0.00000

 k-point     4 :       0.2000    0.0000    0.0000
  band No.  band energies     occupation 
      1      -3.2358      2.00000
      2      13.1559      0.00000
      3      18.8207      0.00000
      4      18.8208      0.00000
      5      22.8666      0.00000
      6      23.8266      0.00000
      7      23.8273      0.00000
      8      26.9186      0.00000
      9      26.9193      0.00000
     10      29.3975      0.00000
     11      32.8382      0.00000
     12      38.3904      0.00000
     13      40.5397      0.00000
     14      40.5398      0.00000
     15      47.1189      0.00000
     16      54.1524      0.00000

 k-point     5 :       0.2667    0.0000    0.0000
  band No.  band energies     occupation 
      1      -2.3520      2.00000
      2      10.4960      0.00000
      3      18.4384      0.00000
      4      18.4385      0.00000
      5      22.7644      0.00000
      6      22.9758      0.00000
      7      22.9764      0.00000
      8      28.1410      0.00000
      9      28.2769      0.00000
     10      28.2778      0.00000
     11      35.1056      0.00000
     12      41.5255      0.00000
     13      43.3960      0.00000
     14      43.3963      0.00000
     15      49.9626      0.00000
     16      50.6321      0.00000

 k-point     6 :       0.3333    0.0000    0.0000
  band No.  band energies     occupation 
      1      -1.2216      2.00000
      2       8.0149      2.00000
      3      18.2377      0.00000
      4      18.2379      0.00000
      5      22.0024      0.00000
      6      22.0029      0.00000
      7      22.7701      0.00000
      8      27.0089      0.00000
      9      30.1894      0.00000
     10      30.1904      0.00000
     11      37.2506      0.00000
     12      45.1919      0.00000
     13      45.2094      0.00000
     14      45.2106      0.00000
     15      48.7756      0.00000
     16      48.7764      0.00000

 k-point     7 :       0.4000    0.0000    0.0000
  band No.  band energies     occupation 
      1       0.1470      2.00000
      2       5.7367      2.00000
      3      18.1749      0.00000
      4      18.1750      0.00000
      5      21.2287      0.00000
      6      21.2292      0.00000
      7      22.8592      0.00000
      8      26.1166      0.00000
      9      32.1895      0.00000
     10      32.1908      0.00000
     11      39.2003      0.00000
     12      43.2861      0.00000
     13      43.2867      0.00000
     14      48.8096      0.00000
     15      50.7804      0.00000
     16      51.2186      0.00000

 k-point     8 :       0.4667    0.0000    0.0000
  band No.  band energies     occupation 
      1       1.7167      2.00000
      2       3.7098      2.00000
      3      18.1846      0.00000
      4      18.1847      0.00000
      5      20.7920      0.00000
      6      20.7925      0.00000
      7      22.9615      0.00000
      8      25.5955      0.00000
      9      33.8230      0.00000
     10      33.8245      0.00000
     11      40.5722      0.00000
     12      41.3507      0.00000
     13      41.3507      0.00000
     14      48.8144      0.00000
     15      52.7559      0.00000
     16      54.3631      0.00000

 k-point     9 :       0.0667    0.0667    0.0000
  band No.  band energies     occupation 
      1      -4.2086      2.00000
      2      19.1674      0.00000
      3      19.1675      0.00000
      4      20.2922      0.00000
      5      20.8888      0.00000
      6      23.5592      0.00000
      7      23.5592      0.00000
      8      26.8712      0.00000
      9      28.2555      0.00000
     10      28.7653      0.00000
     11      31.9261      0.00000
     12      35.1320      0.00000
     13      35.1321      0.00000
     14      36.4049      0.00000
     15      43.0748      0.00000
     16      61.1019      0.00000

 k-point    10 :       0.1333    0.0667    0.0000
  band No.  band energies     occupation 
      1      -3.9120      2.00000
      2      16.9329      0.00000
      3      18.3444      0.00000
      4      19.8390      0.00000
      5      21.2828      0.00000
      6      24.2487      0.00000
      7      24.6837      0.00000
      8      25.4021      0.00000
      9      28.4063      0.00000
     10      30.0312      0.00000
     11      31.8482      0.00000
     12      35.8085      0.00000
     13      36.2505      0.00000
     14      38.0028      0.00000
     15      44.7244      0.00000
     16      58.0137      0.00000

 k-point    11 :       0.2000    0.0667    0.0000
  band No.  band energies     occupation 
      1      -3.3622      2.00000
      2      14.1626      0.00000
      3      17.7168      0.00000
      4      19.2189      0.00000
      5      21.9738      0.00000
      6      24.0723      0.00000
      7      24.8840      0.00000
      8      25.3054      0.00000
      9      28.1357      0.00000
     10      30.7409      0.00000
     11      32.5944      0.00000
     12      37.6789      0.00000
     13      38.5121      0.00000
     14      40.3990      0.00000
     15      47.1185      0.00000
     16      54.1257      0.00000

 k-point    12 :       0.2667    0.0667    0.0000
  band No.  band energies     occupation 
      1      -2.5618      2.00000
      2      11.4639      0.00000
      3      17.2962      0.00000
      4      18.6977      0.00000
      5      21.4843      0.00000
      6      23.8360      0.00000
      7      24.6845      0.00000
      8      25.8886      0.00000
      9      29.1835      0.00000
     10      29.5736      0.00000
     11      34.9120      0.00000
     12      40.5338      0.00000
     13      41.2554      0.00000
     14      43.1926      0.00000
     15      49.9048      0.00000
     16      50.4158      0.00000

 k-point    13 :       0.3333    0.0667    0.0000
  band No.  band energies     occupation 
      1      -1.5138      2.00000
      2       8.9233      2.00000
      3      17.0881      0.00000
      4      18.2478      0.00000
      5      20.6667      0.00000
      6      23.6736      0.00000
      7      23.7994      0.00000
      8      27.4498      0.00000
      9      28.6444      0.00000
     10      30.9269      0.00000
     11      37.1029      0.00000
     12      43.8088      0.00000
     13      43.9380      0.00000
     14      45.8144      0.00000
     15      47.5844      0.00000
     16      49.6354      0.00000

 k-point    14 :       0.4000    0.0667    0.0000
  band No.  band energies     occupation 
      1      -0.2234      2.00000
      2       6.5774      2.00000
      3      17.0863      0.00000
      4      17.7791      0.00000
      5      20.1456      0.00000
      6      22.7313      0.00000
      7      23.8291      0.00000
      8      27.3263      0.00000
      9      29.9245      0.00000
     10      32.7869      0.00000
     11      39.1509      0.00000
     12      43.0356      0.00000
     13      44.7205      0.00000
     14      47.7826      0.00000
     15      48.8621      0.00000
     16      51.0231      0.00000

 k-point    15 :       0.4667    0.0667    0.0000
  band No.  band energies     occupation 
      1       1.2899      2.00000
      2       4.4560      2.00000
      3      17.2659      0.00000
      4      17.2798      0.00000
      5      20.0890      0.00000
      6      21.9662      0.00000
      7      23.8433      0.00000
      8      26.8060      0.00000
      9      31.9441      0.00000
     10      34.1055      0.00000
     11      40.7508      0.00000
     12      41.3364      0.00000
     13      42.3724      0.00000
     14      49.7788      0.00000
     15      51.6586      0.00000
     16      52.1847      0.00000

 k-point    16 :      -0.4667    0.0667    0.0000
  band No.  band energies     occupation 
      1       2.3153      2.00000
      2       3.2777      2.00000
      3      16.8048      0.00000
      4      17.6458      0.00000
      5      20.4063      0.00000
      6      21.4576      0.00000
      7      23.7764      0.00000
      8      26.7203      0.00000
      9      33.3924      0.00000
     10      33.5655      0.00000
     11      40.5444      0.00000
     12      41.5734      0.00000
     13      41.6657      0.00000
     14      49.2818      0.00000
     15      52.9164      0.00000
     16      54.0821      0.00000

 k-point    17 :      -0.4000    0.0667    0.0000
  band No.  band energies     occupation 
      1       0.7635      2.00000
      2       5.1345      2.00000
      3      16.4832      0.00000
      4      18.1484      0.00000
      5      21.0392      0.00000
      6      21.2674      0.00000
      7      23.6421      0.00000
      8      27.0998      0.00000
      9      31.7285      0.00000
     10      33.1785      0.00000
     11      40.3621      0.00000
     12      41.3132      0.00000
     13      43.7487      0.00000
     14      49.4456      0.00000
     15      50.6701      0.00000
     16      51.3792      0.00000

 k-point    18 :      -0.3333    0.0667    0.0000
  band No.  band energies     occupation 
      1      -0.6801      2.00000
      2       7.3356      2.00000
      3      16.3450      0.00000
      4      18.7030      0.00000
      5      21.4319      0.00000
      6      21.9109      0.00000
      7      23.5073      0.00000
      8      27.8133      0.00000
      9      29.5767      0.00000
     10      31.6255      0.00000
     11      38.5943      0.00000
     12      43.1464      0.00000
     13      46.2154      0.00000
     14      46.3869      0.00000
     15      47.6368      0.00000
     16      50.7454      0.00000

 k-point    19 :      -0.2667    0.0667    0.0000
  band No.  band energies     occupation 
      1      -1.8906      2.00000
      2       9.7495      1.83647
      3      16.4138      0.00000
      4      19.2455      0.00000
      5      21.9855      0.00000
      6      22.9708      0.00000
      7      23.4510      0.00000
      8      27.5258      0.00000
      9      28.4562      0.00000
     10      30.1311      0.00000
     11      36.4771      0.00000
     12      42.4585      0.00000
     13      42.9807      0.00000
     14      45.7714      0.00000
     15      47.7652      0.00000
     16      51.0885      0.00000

 k-point    20 :      -0.2000    0.0667    0.0000
  band No.  band energies     occupation 
      1      -2.8563      2.00000
      2      12.3480      0.00000
      3      16.6917      0.00000
      4      19.7873      0.00000
      5      22.7645      0.00000
      6      23.4639      0.00000
[...]
  band No.  band energies     occupation 
      1       5.0150      2.00000
      2       5.7364      2.00000
      3       9.5784      1.99986
      4      11.9533      0.00000
      5      17.1088      0.00000
      6      19.6170      0.00000
      7      32.3414      0.00000
      8      32.8020      0.00000
      9      35.7976      0.00000
     10      41.1320      0.00000
     11      44.0043      0.00000
     12      44.1804      0.00000
     13      45.6528      0.00000
     14      45.9816      0.00000
     15      49.8924      0.00000
     16      49.9328      0.00000

 k-point   101 :       0.4000    0.2667    0.1333
  band No.  band energies     occupation 
      1      -1.0104      2.00000
      2      11.3805      0.00000
      3      12.0610      0.00000
      4      15.7998      0.00000
      5      21.0055      0.00000
      6      21.8201      0.00000
      7      25.5204      0.00000
      8      29.4093      0.00000
      9      31.3814      0.00000
     10      35.2374      0.00000
     11      37.2390      0.00000
     12      42.8114      0.00000
     13      42.9697      0.00000
     14      44.5589      0.00000
     15      46.5961      0.00000
     16      51.3064      0.00000

 k-point   102 :       0.4667    0.2667    0.1333
  band No.  band energies     occupation 
      1       0.1128      2.00000
      2       9.2266      2.00000
      3      11.6543      0.00000
      4      14.6077      0.00000
      5      21.2284      0.00000
      6      23.1207      0.00000
      7      24.8027      0.00000
      8      29.9622      0.00000
      9      32.3819      0.00000
     10      34.9656      0.00000
     11      39.2193      0.00000
     12      42.2047      0.00000
     13      44.5875      0.00000
     14      46.4865      0.00000
     15      48.4978      0.00000
     16      50.5797      0.00000

 k-point   103 :      -0.4667    0.2667    0.1333
  band No.  band energies     occupation 
      1       1.4727      2.00000
      2       6.9982      2.00000
      3      11.7176      0.00000
      4      13.6220      0.00000
      5      21.2901      0.00000
      6      23.2466      0.00000
      7      25.9547      0.00000
      8      30.0532      0.00000
      9      32.9362      0.00000
     10      34.2551      0.00000
     11      39.8496      0.00000
     12      43.1027      0.00000
     13      45.3255      0.00000
     14      47.6721      0.00000
     15      50.0339      0.00000
     16      53.0464      0.00000

 k-point   104 :      -0.4000    0.2667    0.1333
  band No.  band energies     occupation 
      1       3.0366      2.00000
      2       4.9907      2.00000
      3      11.9450      0.00000
      4      12.9340      0.00000
      5      21.4210      0.00000
      6      22.7866      0.00000
      7      27.9435      0.00000
      8      29.5207      0.00000
      9      32.4549      0.00000
     10      33.9310      0.00000
     11      40.6709      0.00000
     12      42.7794      0.00000
     13      46.2568      0.00000
     14      49.0037      0.00000
     15      51.8095      0.00000
     16      52.4182      0.00000

 k-point   105 :       0.4667    0.3333    0.1333
  band No.  band energies     occupation 
      1       0.4871      2.00000
      2      10.4327      0.00000
      3      11.0510      0.00000
      4      12.7829      0.00000
      5      20.0819      0.00000
      6      21.0469      0.00000
      7      26.7708      0.00000
      8      32.1061      0.00000
      9      33.3716      0.00000
     10      37.0354      0.00000
     11      39.6894      0.00000
     12      42.4536      0.00000
     13      44.7891      0.00000
     14      45.9805      0.00000
     15      48.0896      0.00000
     16      49.1408      0.00000

 k-point   106 :      -0.4667    0.3333    0.1333
  band No.  band energies     occupation 
      1       1.7639      2.00000
      2       8.4225      2.00000
      3      10.7220      0.00000
      4      11.7543      0.00000
      5      20.5247      0.00000
      6      22.7403      0.00000
      7      25.9555      0.00000
      8      32.1648      0.00000
      9      33.4918      0.00000
     10      37.1517      0.00000
     11      40.9150      0.00000
     12      42.4218      0.00000
     13      45.1710      0.00000
     14      47.3117      0.00000
     15      49.5039      0.00000
     16      51.6259      0.00000

 k-point   107 :      -0.4000    0.3333    0.1333
  band No.  band energies     occupation 
      1       3.2637      2.00000
      2       6.3578      2.00000
      3      10.4162      0.00000
      4      11.4104      0.00000
      5      20.8192      0.00000
      6      24.3482      0.00000
      7      25.9061      0.00000
      8      30.6540      0.00000
      9      33.5317      0.00000
     10      36.9800      0.00000
     11      41.6376      0.00000
     12      43.2658      0.00000
     13      45.5452      0.00000
     14      48.5377      0.00000
     15      50.5493      0.00000
     16      51.8116      0.00000

 k-point   108 :      -0.3333    0.3333    0.1333
  band No.  band energies     occupation 
      1       4.2984      2.00000
      2       5.1757      2.00000
      3       9.8762      0.69032
      4      11.7876      0.00000
      5      21.2663      0.00000
      6      24.2189      0.00000
      7      27.5435      0.00000
      8      28.7811      0.00000
      9      33.1931      0.00000
     10      36.8683      0.00000
     11      41.0873      0.00000
     12      43.7953      0.00000
     13      46.2713      0.00000
     14      48.8141      0.00000
     15      50.6719      0.00000
     16      51.8495      0.00000

 k-point   109 :      -0.2667    0.3333    0.1333
  band No.  band energies     occupation 
      1       2.7402      2.00000
      2       7.0064      2.00000
      3       9.5022      2.00000
      4      12.4914      0.00000
      5      21.8658      0.00000
      6      23.8683      0.00000
      7      26.0229      0.00000
      8      30.2249      0.00000
      9      32.5244      0.00000
     10      36.6739      0.00000
     11      40.1850      0.00000
     12      42.9043      0.00000
     13      46.0819      0.00000
     14      48.7002      0.00000
     15      51.0481      0.00000
     16      52.9958      0.00000

 k-point   110 :      -0.2000    0.3333    0.1333
  band No.  band energies     occupation 
      1       1.3110      2.00000
      2       8.8490      2.00000
      3       9.6400      1.99674
      4      13.4410      0.00000
      5      22.4576      0.00000
      6      23.1704      0.00000
      7      24.5702      0.00000
      8      31.4320      0.00000
      9      31.8140      0.00000
     10      36.3628      0.00000
     11      39.7410      0.00000
     12      40.9938      0.00000
     13      46.6888      0.00000
     14      47.7080      0.00000
     15      50.6136      0.00000
     16      50.9273      0.00000

 k-point   111 :      -0.4667    0.4000    0.1333
  band No.  band energies     occupation 
      1       2.2983      2.00000
      2       9.4311      2.00000
      3       9.7996      1.50662
      4      10.8372      0.00000
      5      19.4640      0.00000
      6      20.5123      0.00000
      7      28.3434      0.00000
      8      33.3849      0.00000
      9      34.4407      0.00000
     10      39.6968      0.00000
     11      42.1608      0.00000
     12      42.6291      0.00000
     13      45.4351      0.00000
     14      45.5259      0.00000
     15      49.0292      0.00000
     16      51.4575      0.00000

 k-point   112 :      -0.4000    0.4000    0.1333
  band No.  band energies     occupation 
      1       3.7158      2.00000
      2       7.8533      2.00000
      3       8.7027      2.00000
      4      10.5883      0.00000
      5      20.0806      0.00000
      6      22.4059      0.00000
      7      27.5851      0.00000
      8      31.3736      0.00000
      9      35.0250      0.00000
     10      39.9936      0.00000
     11      42.6820      0.00000
     12      43.9158      0.00000
     13      44.8378      0.00000
     14      46.8949      0.00000
     15      49.0557      0.00000
     16      52.0248      0.00000

 k-point   113 :      -0.3333    0.4000    0.1333
  band No.  band energies     occupation 
      1       5.2687      2.00000
      2       6.0637      2.00000
      3       7.9617      2.00000
      4      10.9521      0.00000
      5      20.5369      0.00000
      6      24.7202      0.00000
      7      26.9912      0.00000
      8      29.0458      0.00000
      9      34.7242      0.00000
     10      39.4117      0.00000
     11      42.5296      0.00000
     12      44.6148      0.00000
     13      45.6646      0.00000
     14      47.8700      0.00000
     15      48.4092      0.00000
     16      51.7096      0.00000

 k-point   114 :      -0.2667    0.4000    0.1333
  band No.  band energies     occupation 
      1       4.2289      2.00000
      2       6.9358      2.00000
      3       7.7780      2.00000
      4      11.5983      0.00000
      5      21.1497      0.00000
      6      25.9561      0.00000
      7      26.0710      0.00000
      8      28.3691      0.00000
      9      33.7432      0.00000
     10      38.2633      0.00000
     11      42.3151      0.00000
     12      42.6623      0.00000
     13      46.2601      0.00000
     14      48.3834      0.00000
     15      49.9365      0.00000
     16      53.0797      0.00000

 k-point   115 :      -0.4000    0.4667    0.1333
  band No.  band energies     occupation 
      1       4.3892      2.00000
      2       6.8965      2.00000
      3       9.4815      2.00000
      4      10.3925      0.00000
      5      19.1415      0.00000
      6      20.2418      0.00000
      7      30.1283      0.00000
      8      31.9831      0.00000
      9      36.0672      0.00000
     10      41.8718      0.00000
     11      43.2505      0.00000
     12      43.9304      0.00000
     13      44.9616      0.00000
     14      47.2353      0.00000
     15      47.6029      0.00000
     16      51.7146      0.00000

 k-point   116 :      -0.3333    0.4667    0.1333
  band No.  band energies     occupation 
      1       5.6557      2.00000
      2       6.2969      2.00000
      3       7.9100      2.00000
      4      10.3934      0.00000
      5      19.9355      0.00000
      6      22.2845      0.00000
      7      29.2179      0.00000
      8      29.7321      0.00000
      9      35.9267      0.00000
     10      41.1099      0.00000
     11      44.0852      0.00000
     12      44.4988      0.00000
     13      45.6662      0.00000
     14      46.1083      0.00000
     15      48.3890      0.00000
     16      50.0248      0.00000

 k-point   117 :      -0.4000    0.4000    0.2000
  band No.  band energies     occupation 
      1       3.1098      2.00000
      2       8.2121      2.00000
      3       8.9115      2.00000
      4      10.6323      0.00000
      5      22.5811      0.00000
      6      22.8359      0.00000
      7      25.2987      0.00000
      8      30.8636      0.00000
      9      34.1565      0.00000
     10      38.9463      0.00000
     11      41.7637      0.00000
     12      42.3655      0.00000
     13      45.8200      0.00000
     14      46.9337      0.00000
     15      50.3538      0.00000
     16      53.6051      0.00000

 k-point   118 :      -0.3333    0.4000    0.2000
  band No.  band energies     occupation 
      1       4.6606      2.00000
      2       6.5308      2.00000
      3       8.8572      2.00000
      4       9.9086      0.39171
      5      22.8414      0.00000
      6      24.0293      0.00000
      7      25.7282      0.00000
      8      28.6274      0.00000
      9      34.9243      0.00000
     10      39.6430      0.00000
     11      42.3400      0.00000
     12      44.3191      0.00000
     13      45.0220      0.00000
     14      47.6561      0.00000
     15      48.7254      0.00000
     16      52.3429      0.00000

 k-point   119 :      -0.3333    0.4667    0.2000
  band No.  band energies     occupation 
      1       5.1810      2.00000
      2       7.5358      2.00000
      3       7.8939      2.00000
      4       9.0515      2.00000
      5      22.2946      0.00000
      6      22.8139      0.00000
      7      26.8437      0.00000
      8      29.0294      0.00000
      9      36.1126      0.00000
     10      41.8470      0.00000
     11      43.5544      0.00000
     12      43.8090      0.00000
     13      45.8372      0.00000
     14      46.1185      0.00000
     15      47.4985      0.00000
     16      50.6183      0.00000

 k-point   120 :      -0.2667    0.4667    0.2000
  band No.  band energies     occupation 
      1       6.2103      2.00000
      2       6.6163      2.00000
      3       7.4061      2.00000
      4       9.1237      2.00000
      5      22.9401      0.00000
      6      24.7598      0.00000
      7      25.6792      0.00000
      8      27.4664      0.00000
      9      36.0554      0.00000
     10      41.5036      0.00000
     11      43.7197      0.00000
     12      44.4635      0.00000
     13      45.4439      0.00000
     14      46.5256      0.00000
     15      47.1750      0.00000
     16      50.0692      0.00000


--------------------------------------------------------------------------------------------------------


 soft charge-density along one line, spin component           1
         0         1         2         3         4         5         6         7         8         9
 total charge-density along one line
 
 pseudopotential strength for first ion, spin component:           1
 18.007  -0.003   0.000  -0.000   0.000   0.000  -0.000  -0.000
 -0.003   0.005   0.000   0.000  -0.000   0.000   0.000   0.000
  0.000   0.000   4.102  -0.000  -0.000  -0.006   0.000   0.000
 -0.000   0.000  -0.000   4.102  -0.000   0.000  -0.006   0.000
  0.000  -0.000  -0.000  -0.000   4.102   0.000   0.000  -0.006
  0.000   0.000  -0.006   0.000   0.000   0.005  -0.000  -0.000
 -0.000   0.000   0.000  -0.006   0.000  -0.000   0.005  -0.000
 -0.000   0.000   0.000   0.000  -0.006  -0.000  -0.000   0.005
 total augmentation occupancy for first ion, spin component:           1
  1.761  -0.290   0.000   0.000   0.000   0.000   0.000   0.000
 -0.290   1.082   0.000   0.000   0.000   0.000   0.000   0.000
  0.000   0.000   0.751   0.000   0.000  -0.486   0.000   0.000
  0.000   0.000   0.000   0.751   0.000  -0.000  -0.486  -0.000
  0.000   0.000   0.000   0.000   0.751  -0.000  -0.000  -0.486
  0.000   0.000  -0.486  -0.000   0.000   0.410   0.000  -0.000
  0.000   0.000   0.000  -0.486  -0.000  -0.000   0.410   0.000
  0.000   0.000  -0.000  -0.000  -0.486  -0.000   0.000   0.410


------------------------ aborting loop because EDIFF is reached ----------------------------------------


    CHARGE:  cpu time    0.0010: real time    0.0019
    FORLOC:  cpu time    0.0000: real time    0.0000
    FORNL :  cpu time    0.0030: real time    0.0022
    STRESS:  cpu time    0.0360: real time    0.0373
    FORCOR:  cpu time    0.0020: real time    0.0012
    FORHAR:  cpu time    0.0000: real time    0.0003
    MIXING:  cpu time    0.0000: real time    0.0002
    OFIELD:  cpu time    0.0000: real time    0.0000

  FORCE on cell =-STRESS in cart. coord.  units (eV):
  Direction    XX          YY          ZZ          XY          YZ          ZX
  --------------------------------------------------------------------------------------
  Alpha Z     2.26997     2.26997     2.26997
  Ewald     -45.14259   -45.14259   -45.14259    -0.00000     0.00000    -0.00000
  Hartree     0.16306     0.16306     0.16306    -0.00000    -0.00000    -0.00000
  E(xc)     -12.63197   -12.63197   -12.63197    -0.00000    -0.00000    -0.00000
  Local      -5.26741    -5.26741    -5.26741     0.00003     0.00003     0.00004
  n-local    39.03919    37.13624    39.35010    -0.58657     0.57584     0.91747
  augment    -6.30227    -6.30227    -6.30227    -0.00005    -0.00005    -0.00005
  Kinetic    20.79726    39.37522    24.43701     9.85520    -8.46624   -16.24253
  Fock        0.00000     0.00000     0.00000     0.00000     0.00000     0.00000
  -------------------------------------------------------------------------------------
  Total      -0.19955    -0.19955    -0.19955    -0.00000     0.00000    -0.00000
  in kB     -21.55884   -21.55884   -21.55884    -0.00000     0.00000    -0.00000
  external pressure =      -21.56 kB  Pullay stress =        0.00 kB


 VOLUME and BASIS-vectors are now :
 -----------------------------------------------------------------------------
  energy-cutoff  :      240.00
  volume of cell :       14.83
      direct lattice vectors                 reciprocal lattice vectors
     1.950000000  1.950000000  0.000000000     0.256410256  0.256410256 -0.256410256
     0.000000000  1.950000000  1.950000000    -0.256410256  0.256410256  0.256410256
     1.950000000  0.000000000  1.950000000     0.256410256 -0.256410256  0.256410256

  length of vectors
     2.757716447  2.757716447  2.757716447     0.444115592  0.444115592  0.444115592


 FORCES acting on ions
    electron-ion (+dipol)            ewald-force                    non-local-force                 convergence-correction
 -----------------------------------------------------------------------------------------------
   0.198E-15 -.273E-15 0.102E-15   0.262E-15 0.141E-15 0.191E-15   0.000E+00 0.000E+00 0.000E+00   0.720E-16 0.391E-16 -.247E-16
 -----------------------------------------------------------------------------------------------
   0.198E-15 -.273E-15 0.102E-15   0.262E-15 0.141E-15 0.191E-15   0.000E+00 0.000E+00 0.000E+00   0.720E-16 0.391E-16 -.247E-16
 
 
 POSITION                                       TOTAL-FORCE (eV/Angst)
 -----------------------------------------------------------------------------------
      0.00000      0.00000      0.00000        -0.000000      0.000000      0.000000
 -----------------------------------------------------------------------------------
    total drift:                                0.000000     -0.000000      0.000000


--------------------------------------------------------------------------------------------------------



  FREE ENERGIE OF THE ION-ELECTRON SYSTEM (eV)
  ---------------------------------------------------
  free  energy   TOTEN  =        -4.86357383 eV

  energy  without entropy=       -4.86031905  energy(sigma->0) =       -4.86194644
 


--------------------------------------------------------------------------------------------------------


    POTLOK:  cpu time    0.0020: real time    0.0026


--------------------------------------------------------------------------------------------------------


 writing wavefunctions
     LOOP+:  cpu time    3.9434: real time    4.0734
    4ORBIT:  cpu time    0.0000: real time    0.0000

 total amount of memory used by VASP on root node    31527. kBytes
========================================================================

   base      :      30000. kBytes
   nonl-proj :       1108. kBytes
   fftplans  :         27. kBytes
   grid      :         82. kBytes
   one-center:          3. kBytes
   wavefun   :        307. kBytes
 
  
  
 General timing and accounting informations for this job:
 ========================================================
  
                  Total CPU time used (sec):        4.535
                            User time (sec):        4.301
                          System time (sec):        0.234
                         Elapsed time (sec):        5.202
  
                   Maximum memory used (kb):       69508.
                   Average memory used (kb):           0.
  
                          Minor page faults:        60454
                          Major page faults:            0
                 Voluntary context switches:         2673
