<?xml version="1.0" encoding="ISO-8859-1"?>
<modeling>
 <generator>
  <i name="program" type="string">vasp </i>
  <i name="version" type="string">5.4.1  </i>
  <i name="subversion" type="string">24Jun15 (build May 02 2016 14:41:14) complex                          parallel </i>
  <i name="platform" type="string">IFC91_ompi </i>
  <i name="date" type="string">2022 05 07 </i>
  <i name="time" type="string">11:02:49 </i>
 </generator>
 <incar>
  <i type="string" name="SYSTEM"> FCC Silicon</i>
  <i type="int" name="ISTART">     0</i>
  <i type="string" name="PREC">normal</i>
  <i type="string" name="ALGO"> Normal</i>
  <i type="int" name="ICHARG">     2</i>
  <i type="int" name="NELM">   100</i>
  <i type="int" name="NELMIN">     4</i>
  <i name="EDIFF">      0.00000100</i>
  <i name="ENCUT">    240.00000000</i>
  <i type="logical" name="LREAL"> F  </i>
  <i type="int" name="ISMEAR">     0</i>
  <i name="SIGMA">      0.10000000</i>
  <v type="int" name="KPOINT_BSE">    -1     0     0     0</v>
  <i type="int" name="NELM">   100</i>
 </incar>
 <kpoints>
  <generation param="Monkhorst-Pack">
   <v type="int" name="divisions">      15       15       15 </v>
   <v name="usershift">      0.00000000       0.00000000       0.00000000 </v>
   <v name="genvec1">      0.06666667       0.00000000       0.00000000 </v>
   <v name="genvec2">      0.00000000       0.06666667       0.00000000 </v>
   <v name="genvec3">      0.00000000       0.00000000       0.06666667 </v>
   <v name="shift">      0.00000000       0.00000000       0.00000000 </v>
  </generation>
  <varray name="kpointlist" >
   <v>       0.00000000       0.00000000       0.00000000 </v>
   <v>       0.06666667       0.00000000       0.00000000 </v>
   <v>       0.13333333       0.00000000       0.00000000 </v>
   <v>       0.20000000       0.00000000       0.00000000 </v>
   <v>       0.26666667       0.00000000       0.00000000 </v>
   <v>       0.33333333       0.00000000       0.00000000 </v>
   <v>       0.40000000       0.00000000       0.00000000 </v>
   <v>       0.46666667       0.00000000       0.00000000 </v>
   <v>       0.06666667       0.06666667       0.00000000 </v>
   <v>       0.13333333       0.06666667       0.00000000 </v>
   <v>       0.20000000       0.06666667       0.00000000 </v>
   <v>       0.26666667       0.06666667       0.00000000 </v>
   <v>       0.33333333       0.06666667       0.00000000 </v>
   <v>       0.40000000       0.06666667       0.00000000 </v>
   <v>       0.46666667       0.06666667       0.00000000 </v>
   <v>      -0.46666667       0.06666667       0.00000000 </v>
   <v>      -0.40000000       0.06666667       0.00000000 </v>
   <v>      -0.33333333       0.06666667       0.00000000 </v>
   <v>      -0.26666667       0.06666667       0.00000000 </v>
   <v>      -0.20000000       0.06666667       0.00000000 </v>
   <v>      -0.13333333       0.06666667       0.00000000 </v>
   <v>      -0.06666667       0.06666667       0.00000000 </v>
   <v>       0.13333333       0.13333333       0.00000000 </v>
   <v>       0.20000000       0.13333333       0.00000000 </v>
   <v>       0.26666667       0.13333333       0.00000000 </v>
   <v>       0.33333333       0.13333333       0.00000000 </v>
   <v>       0.40000000       0.13333333       0.00000000 </v>
   <v>       0.46666667       0.13333333       0.00000000 </v>
   <v>      -0.46666667       0.13333333       0.00000000 </v>
   <v>      -0.40000000       0.13333333       0.00000000 </v>
   <v>      -0.33333333       0.13333333       0.00000000 </v>
   <v>      -0.26666667       0.13333333       0.00000000 </v>
   <v>      -0.20000000       0.13333333       0.00000000 </v>
   <v>      -0.13333333       0.13333333       0.00000000 </v>
   <v>       0.20000000       0.20000000       0.00000000 </v>
   <v>       0.26666667       0.20000000       0.00000000 </v>
   <v>       0.33333333       0.20000000       0.00000000 </v>
   <v>       0.40000000       0.20000000       0.00000000 </v>
   <v>       0.46666667       0.20000000       0.00000000 </v>
   <v>      -0.46666667       0.20000000       0.00000000 </v>
   <v>      -0.40000000       0.20000000       0.00000000 </v>
   <v>      -0.33333333       0.20000000       0.00000000 </v>
   <v>      -0.26666667       0.20000000       0.00000000 </v>
   <v>      -0.20000000       0.20000000       0.00000000 </v>
   <v>       0.26666667       0.26666667       0.00000000 </v>
   <v>       0.33333333       0.26666667       0.00000000 </v>
   <v>       0.40000000       0.26666667       0.00000000 </v>
   <v>       0.46666667       0.26666667       0.00000000 </v>
   <v>      -0.46666667       0.26666667       0.00000000 </v>
   <v>      -0.40000000       0.26666667       0.00000000 </v>
   <v>      -0.33333333       0.26666667       0.00000000 </v>
   <v>      -0.26666667       0.26666667       0.00000000 </v>
   <v>       0.33333333       0.33333333       0.00000000 </v>
   <v>       0.40000000       0.33333333       0.00000000 </v>
   <v>       0.46666667       0.33333333       0.00000000 </v>
   <v>      -0.46666667       0.33333333       0.00000000 </v>
   <v>      -0.40000000       0.33333333       0.00000000 </v>
   <v>      -0.33333333       0.33333333       0.00000000 </v>
   <v>       0.40000000       0.40000000       0.00000000 </v>
   <v>       0.46666667       0.40000000       0.00000000 </v>
   <v>      -0.46666667       0.40000000       0.00000000 </v>
   <v>      -0.40000000       0.40000000       0.00000000 </v>
   <v>       0.46666667       0.46666667       0.00000000 </v>
   <v>      -0.46666667       0.46666667       0.00000000 </v>
   <v>       0.20000000       0.13333333       0.06666667 </v>
   <v>       0.26666667       0.13333333       0.06666667 </v>
   <v>       0.33333333       0.13333333       0.06666667 </v>
   <v>       0.40000000       0.13333333       0.06666667 </v>
   <v>       0.46666667       0.13333333       0.06666667 </v>
   <v>      -0.46666667       0.13333333       0.06666667 </v>
   <v>       0.26666667       0.20000000       0.06666667 </v>
   <v>       0.33333333       0.20000000       0.06666667 </v>
   <v>       0.40000000       0.20000000       0.06666667 </v>
   <v>       0.46666667       0.20000000       0.06666667 </v>
   <v>      -0.46666667       0.20000000       0.06666667 </v>
   <v>      -0.40000000       0.20000000       0.06666667 </v>
   <v>      -0.33333333       0.20000000       0.06666667 </v>
   <v>      -0.26666667       0.20000000       0.06666667 </v>
   <v>      -0.20000000       0.20000000       0.06666667 </v>
   <v>      -0.13333333       0.20000000       0.06666667 </v>
   <v>       0.33333333       0.26666667       0.06666667 </v>
   <v>       0.40000000       0.26666667       0.06666667 </v>
   <v>       0.46666667       0.26666667       0.06666667 </v>
   <v>      -0.46666667       0.26666667       0.06666667 </v>
   <v>      -0.40000000       0.26666667       0.06666667 </v>
   <v>      -0.33333333       0.26666667       0.06666667 </v>
   <v>      -0.26666667       0.26666667       0.06666667 </v>
   <v>      -0.20000000       0.26666667       0.06666667 </v>
   <v>       0.40000000       0.33333333       0.06666667 </v>
   <v>       0.46666667       0.33333333       0.06666667 </v>
   <v>      -0.46666667       0.33333333       0.06666667 </v>
   <v>      -0.40000000       0.33333333       0.06666667 </v>
   <v>      -0.33333333       0.33333333       0.06666667 </v>
   <v>      -0.26666667       0.33333333       0.06666667 </v>
   <v>       0.46666667       0.40000000       0.06666667 </v>
   <v>      -0.46666667       0.40000000       0.06666667 </v>
   <v>      -0.40000000       0.40000000       0.06666667 </v>
   <v>      -0.33333333       0.40000000       0.06666667 </v>
   <v>      -0.46666667       0.46666667       0.06666667 </v>
   <v>      -0.40000000       0.46666667       0.06666667 </v>
   <v>       0.40000000       0.26666667       0.13333333 </v>
   <v>       0.46666667       0.26666667       0.13333333 </v>
   <v>      -0.46666667       0.26666667       0.13333333 </v>
   <v>      -0.40000000       0.26666667       0.13333333 </v>
   <v>       0.46666667       0.33333333       0.13333333 </v>
   <v>      -0.46666667       0.33333333       0.13333333 </v>
   <v>      -0.40000000       0.33333333       0.13333333 </v>
   <v>      -0.33333333       0.33333333       0.13333333 </v>
   <v>      -0.26666667       0.33333333       0.13333333 </v>
   <v>      -0.20000000       0.33333333       0.13333333 </v>
   <v>      -0.46666667       0.40000000       0.13333333 </v>
   <v>      -0.40000000       0.40000000       0.13333333 </v>
   <v>      -0.33333333       0.40000000       0.13333333 </v>
   <v>      -0.26666667       0.40000000       0.13333333 </v>
   <v>      -0.40000000       0.46666667       0.13333333 </v>
   <v>      -0.33333333       0.46666667       0.13333333 </v>
   <v>      -0.40000000       0.40000000       0.20000000 </v>
   <v>      -0.33333333       0.40000000       0.20000000 </v>
   <v>      -0.33333333       0.46666667       0.20000000 </v>
   <v>      -0.26666667       0.46666667       0.20000000 </v>
  </varray>
  <varray name="weights" >
   <v>       0.00029630 </v>
   <v>       0.00237037 </v>
   <v>       0.00237037 </v>
   <v>       0.00237037 </v>
   <v>       0.00237037 </v>
   <v>       0.00237037 </v>
   <v>       0.00237037 </v>
   <v>       0.00237037 </v>
   <v>       0.00177778 </v>
   <v>       0.00711111 </v>
   <v>       0.00711111 </v>
   <v>       0.00711111 </v>
   <v>       0.00711111 </v>
   <v>       0.00711111 </v>
   <v>       0.00711111 </v>
   <v>       0.00711111 </v>
   <v>       0.00711111 </v>
   <v>       0.00711111 </v>
   <v>       0.00711111 </v>
   <v>       0.00711111 </v>
   <v>       0.00711111 </v>
   <v>       0.00355556 </v>
   <v>       0.00177778 </v>
   <v>       0.00711111 </v>
   <v>       0.00711111 </v>
   <v>       0.00711111 </v>
   <v>       0.00711111 </v>
   <v>       0.00711111 </v>
   <v>       0.00711111 </v>
   <v>       0.00711111 </v>
   <v>       0.00711111 </v>
   <v>       0.00711111 </v>
   <v>       0.00711111 </v>
   <v>       0.00355556 </v>
   <v>       0.00177778 </v>
   <v>       0.00711111 </v>
   <v>       0.00711111 </v>
   <v>       0.00711111 </v>
   <v>       0.00711111 </v>
   <v>       0.00711111 </v>
   <v>       0.00711111 </v>
   <v>       0.00711111 </v>
   <v>       0.00711111 </v>
   <v>       0.00355556 </v>
   <v>       0.00177778 </v>
   <v>       0.00711111 </v>
   <v>       0.00711111 </v>
   <v>       0.00711111 </v>
   <v>       0.00711111 </v>
   <v>       0.00711111 </v>
   <v>       0.00711111 </v>
   <v>       0.00355556 </v>
   <v>       0.00177778 </v>
   <v>       0.00711111 </v>
   <v>       0.00711111 </v>
   <v>       0.00711111 </v>
   <v>       0.00711111 </v>
   <v>       0.00355556 </v>
   <v>       0.00177778 </v>
   <v>       0.00711111 </v>
   <v>       0.00711111 </v>
   <v>       0.00355556 </v>
   <v>       0.00177778 </v>
   <v>       0.00355556 </v>
   <v>       0.00711111 </v>
   <v>       0.01422222 </v>
   <v>       0.01422222 </v>
   <v>       0.01422222 </v>
   <v>       0.01422222 </v>
   <v>       0.01422222 </v>
   <v>       0.00711111 </v>
   <v>       0.01422222 </v>
   <v>       0.01422222 </v>
   <v>       0.01422222 </v>
   <v>       0.01422222 </v>
   <v>       0.01422222 </v>
   <v>       0.01422222 </v>
   <v>       0.01422222 </v>
   <v>       0.01422222 </v>
   <v>       0.00711111 </v>
   <v>       0.00711111 </v>
   <v>       0.01422222 </v>
   <v>       0.01422222 </v>
   <v>       0.01422222 </v>
   <v>       0.01422222 </v>
   <v>       0.01422222 </v>
   <v>       0.01422222 </v>
   <v>       0.00711111 </v>
   <v>       0.00711111 </v>
   <v>       0.01422222 </v>
   <v>       0.01422222 </v>
   <v>       0.01422222 </v>
   <v>       0.01422222 </v>
   <v>       0.00711111 </v>
   <v>       0.00711111 </v>
   <v>       0.01422222 </v>
   <v>       0.01422222 </v>
   <v>       0.00711111 </v>
   <v>       0.00711111 </v>
   <v>       0.00711111 </v>
   <v>       0.00711111 </v>
   <v>       0.01422222 </v>
   <v>       0.01422222 </v>
   <v>       0.01422222 </v>
   <v>       0.00711111 </v>
   <v>       0.01422222 </v>
   <v>       0.01422222 </v>
   <v>       0.01422222 </v>
   <v>       0.01422222 </v>
   <v>       0.00711111 </v>
   <v>       0.00711111 </v>
   <v>       0.01422222 </v>
   <v>       0.01422222 </v>
   <v>       0.00711111 </v>
   <v>       0.00711111 </v>
   <v>       0.00711111 </v>
   <v>       0.00711111 </v>
   <v>       0.01422222 </v>
   <v>       0.00711111 </v>
   <v>       0.00711111 </v>
  </varray>
 </kpoints>
 <parameters>
  <separator name="general" >
   <i type="string" name="SYSTEM">FCC Silicon</i>
   <i type="logical" name="LCOMPAT"> F  </i>
  </separator>
  <separator name="electronic" >
   <i type="string" name="PREC">normal</i>
   <i name="ENMAX">    240.00000000</i>
   <i name="ENAUG">    322.06900000</i>
   <i name="EDIFF">      0.00000100</i>
   <i type="int" name="IALGO">    38</i>
   <i type="int" name="IWAVPR">    10</i>
   <i type="int" name="NBANDS">    16</i>
   <i name="NELECT">      4.00000000</i>
   <i type="int" name="TURBO">     0</i>
   <i type="int" name="IRESTART">     0</i>
   <i type="int" name="NREBOOT">     0</i>
   <i type="int" name="NMIN">     0</i>
   <i name="EREF">      0.00000000</i>
   <separator name="electronic smearing" >
    <i type="int" name="ISMEAR">     0</i>
    <i name="SIGMA">      0.10000000</i>
    <i name="KSPACING">      0.50000000</i>
    <i type="logical" name="KGAMMA"> T  </i>
   </separator>
   <separator name="electronic projectors" >
    <i type="logical" name="LREAL"> F  </i>
    <v name="ROPT">      0.00000000</v>
    <i type="int" name="LMAXPAW">  -100</i>
    <i type="int" name="LMAXMIX">     2</i>
    <i type="logical" name="NLSPLINE"> F  </i>
   </separator>
   <separator name="electronic startup" >
    <i type="int" name="ISTART">     0</i>
    <i type="int" name="ICHARG">     2</i>
    <i type="int" name="INIWAV">     1</i>
   </separator>
   <separator name="electronic spin" >
    <i type="int" name="ISPIN">     1</i>
    <i type="logical" name="LNONCOLLINEAR"> F  </i>
    <v name="MAGMOM">      1.00000000</v>
    <i name="NUPDOWN">     -1.00000000</i>
    <i type="logical" name="LSORBIT"> F  </i>
    <v name="SAXIS">      0.00000000      0.00000000      1.00000000</v>
    <i type="logical" name="LSPIRAL"> F  </i>
    <v name="QSPIRAL">      0.00000000      0.00000000      0.00000000</v>
    <i type="logical" name="LZEROZ"> F  </i>
   </separator>
   <separator name="electronic exchange-correlation" >
    <i type="logical" name="LASPH"> F  </i>
    <i type="logical" name="LMETAGGA"> F  </i>
   </separator>
   <separator name="electronic convergence" >
    <i type="int" name="NELM">   100</i>
    <i type="int" name="NELMDL">    -5</i>
    <i type="int" name="NELMIN">     4</i>
    <i name="ENINI">    240.00000000</i>
    <separator name="electronic convergence detail" >
     <i type="logical" name="LDIAG"> T  </i>
     <i type="logical" name="LSUBROT"> F  </i>
     <i name="WEIMIN">      0.00000000</i>
     <i name="EBREAK">      0.00000002</i>
     <i name="DEPER">      0.30000000</i>
     <i type="int" name="NRMM">     4</i>
     <i name="TIME">      0.40000000</i>
    </separator>
   </separator>
   <separator name="electronic mixer" >
    <i name="AMIX">      0.40000000</i>
    <i name="BMIX">      1.00000000</i>
    <i name="AMIN">      0.10000000</i>
    <i name="AMIX_MAG">      1.60000000</i>
    <i name="BMIX_MAG">      1.00000000</i>
    <separator name="electronic mixer details" >
     <i type="int" name="IMIX">     4</i>
     <i type="logical" name="MIXFIRST"> F  </i>
     <i type="int" name="MAXMIX">   -45</i>
     <i name="WC">    100.00000000</i>
     <i type="int" name="INIMIX">     1</i>
     <i type="int" name="MIXPRE">     1</i>
     <i type="int" name="MREMOVE">     5</i>
    </separator>
   </separator>
   <separator name="electronic dipolcorrection" >
    <i type="logical" name="LDIPOL"> F  </i>
    <i type="logical" name="LMONO"> F  </i>
    <i type="int" name="IDIPOL">     0</i>
    <i name="EPSILON">      1.00000000</i>
    <v name="DIPOL">   -100.00000000   -100.00000000   -100.00000000</v>
    <i name="EFIELD">      0.00000000</i>
   </separator>
  </separator>
  <separator name="grids" >
   <i type="int" name="NGX">    10</i>
   <i type="int" name="NGY">    10</i>
   <i type="int" name="NGZ">    10</i>
   <i type="int" name="NGXF">    20</i>
   <i type="int" name="NGYF">    20</i>
   <i type="int" name="NGZF">    20</i>
   <i type="logical" name="ADDGRID"> F  </i>
  </separator>
  <separator name="ionic" >
   <i type="int" name="NSW">     0</i>
   <i type="int" name="IBRION">    -1</i>
   <i type="int" name="ISIF">     2</i>
   <i name="PSTRESS">      0.00000000</i>
   <i name="EDIFFG">      0.00001000</i>
   <i type="int" name="NFREE">     0</i>
   <i name="POTIM">      0.50000000</i>
   <i name="SMASS">     -3.00000000</i>
   <i name="SCALEE">      1.00000000</i>
  </separator>
  <separator name="ionic md" >
   <i name="TEBEG">      0.00010000</i>
   <i name="TEEND">      0.00010000</i>
   <i type="int" name="NBLOCK">     1</i>
   <i type="int" name="KBLOCK">     1</i>
   <i type="int" name="NPACO">   256</i>
   <i name="APACO">     16.00000000</i>
  </separator>
  <separator name="symmetry" >
   <i type="int" name="ISYM">     2</i>
   <i name="SYMPREC">      0.00001000</i>
  </separator>
  <separator name="dos" >
   <i type="logical" name="LORBIT"> F  </i>
   <v name="RWIGS">     -1.00000000</v>
   <i type="int" name="NEDOS">   301</i>
   <i name="EMIN">     10.00000000</i>
   <i name="EMAX">    -10.00000000</i>
   <i name="EFERMI">      0.00000000</i>
  </separator>
  <separator name="writing" >
   <i type="int" name="NWRITE">     2</i>
   <i type="logical" name="LWAVE"> T  </i>
   <i type="logical" name="LCHARG"> T  </i>
   <i type="logical" name="LPARD"> F  </i>
   <i type="logical" name="LVTOT"> F  </i>
   <i type="logical" name="LVHAR"> F  </i>
   <i type="logical" name="LELF"> F  </i>
   <i type="logical" name="LOPTICS"> F  </i>
   <v name="STM">      0.00000000      0.00000000      0.00000000      0.00000000      0.00000000      0.00000000      0.00000000</v>
  </separator>
  <separator name="performance" >
   <i type="int" name="NPAR">    16</i>
   <i type="int" name="NSIM">     4</i>
   <i type="int" name="NBLK">    -1</i>
   <i type="logical" name="LPLANE"> T  </i>
   <i type="logical" name="LSCALAPACK"> T  </i>
   <i type="logical" name="LSCAAWARE"> T  </i>
   <i type="logical" name="LSCALU"> F  </i>
   <i type="logical" name="LASYNC"> F  </i>
   <i type="logical" name="LORBITALREAL"> F  </i>
  </separator>
  <separator name="miscellaneous" >
   <i type="int" name="IDIOT">     3</i>
   <i type="logical" name="LMUSIC"> F  </i>
   <v name="POMASS">     28.08500000</v>
   <v name="DARWINR">      0.00000000</v>
   <v name="DARWINV">      1.00000000</v>
   <i type="logical" name="LCORR"> T  </i>
  </separator>
  <i type="logical" name="GGA_COMPAT"> T  </i>
  <i type="logical" name="LBERRY"> F  </i>
  <i type="int" name="ICORELEVEL">     0</i>
  <i type="logical" name="LDAU"> F  </i>
  <i type="int" name="I_CONSTRAINED_M">     0</i>
  <separator name="electronic exchange-correlation" >
   <i type="string" name="GGA">--</i>
   <i type="int" name="VOSKOWN">     0</i>
   <i type="logical" name="LHFCALC"> F  </i>
   <i type="string" name="PRECFOCK"></i>
   <i type="logical" name="LSYMGRAD"> F  </i>
   <i type="logical" name="LHFONE"> F  </i>
   <i type="logical" name="LRHFCALC"> F  </i>
   <i type="logical" name="LTHOMAS"> F  </i>
   <i type="logical" name="LMODELHF"> F  </i>
   <i name="ENCUT4O">     -1.00000000</i>
   <i type="int" name="EXXOEP">     0</i>
   <i type="int" name="FOURORBIT">     0</i>
   <i name="AEXX">      0.00000000</i>
   <i name="HFALPHA">      0.00000000</i>
   <i name="MCALPHA">      0.00000000</i>
   <i name="ALDAX">      1.00000000</i>
   <i name="AGGAX">      1.00000000</i>
   <i name="ALDAC">      1.00000000</i>
   <i name="AGGAC">      1.00000000</i>
   <i type="int" name="NKREDX">     1</i>
   <i type="int" name="NKREDY">     1</i>
   <i type="int" name="NKREDZ">     1</i>
   <i type="logical" name="SHIFTRED"> F  </i>
   <i type="logical" name="ODDONLY"> F  </i>
   <i type="logical" name="EVENONLY"> F  </i>
   <i type="int" name="LMAXFOCK">     0</i>
   <i type="int" name="NMAXFOCKAE">     0</i>
   <i type="logical" name="LFOCKAEDFT"> F  </i>
   <i name="HFSCREEN">      0.00000000</i>
   <i name="HFSCREENC">      0.00000000</i>
   <i type="int" name="NBANDSGWLOW">     0</i>
  </separator>
  <separator name="vdW DFT" >
   <i type="logical" name="LUSE_VDW"> F  </i>
   <i name="Zab_VDW">     -0.84910000</i>
   <i name="PARAM1">      0.12340000</i>
   <i name="PARAM2">      1.00000000</i>
   <i name="PARAM3">      0.00000000</i>
  </separator>
  <separator name="model GW" >
   <i type="int" name="MODEL_GW">     0</i>
   <i name="MODEL_EPS0">      8.89785000</i>
   <i name="MODEL_ALPHA">      1.00000000</i>
  </separator>
  <separator name="linear response parameters" >
   <i type="logical" name="LEPSILON"> F  </i>
   <i type="logical" name="LRPA"> F  </i>
   <i type="logical" name="LNABLA"> F  </i>
   <i type="logical" name="LVEL"> F  </i>
   <i type="int" name="KINTER">     0</i>
   <i name="CSHIFT">      0.10000000</i>
   <i name="OMEGAMAX">     -1.00000000</i>
   <i name="DEG_THRESHOLD">      0.00200000</i>
  </separator>
  <separator name="orbital magnetization" >
   <i type="logical" name="NUCIND"> F  </i>
   <v name="MAGPOS">      0.00000000      0.00000000      0.00000000</v>
   <i type="logical" name="LNICSALL"> T  </i>
   <i type="logical" name="ORBITALMAG"> F  </i>
   <i type="logical" name="LMAGBLOCH"> F  </i>
   <i type="logical" name="LCHIMAG"> F  </i>
   <i type="logical" name="LGAUGE"> T  </i>
   <i type="int" name="MAGATOM">     0</i>
   <v name="MAGDIPOL">      0.00000000      0.00000000      0.00000000</v>
   <v name="AVECCONST">      0.00000000      0.00000000      0.00000000</v>
  </separator>
  <separator name="response functions" >
   <i type="logical" name="LADDER"> F  </i>
   <i type="logical" name="LFXC"> F  </i>
   <i type="logical" name="LHARTREE"> T  </i>
   <i type="int" name="IBSE">     0</i>
   <v type="int" name="KPOINT">    -1     0     0     0</v>
   <i type="logical" name="LTCTE"> F  </i>
   <i type="logical" name="LTETE"> F  </i>
   <i type="logical" name="LTRIPLET"> F  </i>
   <i type="logical" name="LFXCEPS"> F  </i>
   <i type="logical" name="LFXHEG"> F  </i>
   <i type="int" name="NATURALO">     0</i>
   <i type="logical" name="L2ORDER"> F  </i>
   <i type="logical" name="LUSEW"> F  </i>
   <i name="ENCUTGW">     -2.00000000</i>
   <i name="ENCUTGWSOFT">     -2.00000000</i>
   <i name="ENCUTLF">     -1.00000000</i>
   <i type="int" name="LMAXMP2">    -1</i>
   <i name="SCISSOR">      0.00000000</i>
   <i type="int" name="NOMEGA">     0</i>
   <i type="int" name="NOMEGAR">     0</i>
   <i type="int" name="NBANDSGW">    -1</i>
   <i type="int" name="NBANDSO">    -1</i>
   <i type="int" name="NBANDSV">    -1</i>
   <i type="int" name="NELM">   100</i>
   <i type="int" name="NELMHF">     1</i>
   <i type="int" name="DIM">     3</i>
   <i type="int" name="ANTIRES">     0</i>
   <i name="OMEGAMAX">    -30.00000000</i>
   <i name="OMEGAMIN">    -30.00000000</i>
   <i name="OMEGATL">   -200.00000000</i>
   <i type="int" name="OMEGAGRID">     0</i>
   <i name="CSHIFT">     -0.10000000</i>
   <i type="logical" name="SELFENERGY"> F  </i>
   <i type="logical" name="LSPECTRAL"> F  </i>
   <i type="logical" name="LSPECTRALGW"> F  </i>
   <i type="logical" name="LSINGLES"> F  </i>
   <i type="logical" name="LFERMIGW"> F  </i>
   <i type="logical" name="ODDONLYGW"> F  </i>
   <i type="logical" name="EVENONLYGW"> F  </i>
   <i type="int" name="NKREDLFX">     1</i>
   <i type="int" name="NKREDLFY">     1</i>
   <i type="int" name="NKREDLFZ">     1</i>
   <i type="int" name="MAXMEM">  1800</i>
   <i type="int" name="TELESCOPE">     0</i>
   <i type="int" name="TAUPAR">     1</i>
   <i type="int" name="OMEGAPAR">    -1</i>
   <i name="LAMBDA">      1.00000000</i>
  </separator>
  <separator name="External order field" >
   <i name="OFIELD_KAPPA">      0.00000000</i>
   <v name="OFIELD_K">      0.00000000      0.00000000      0.00000000</v>
   <i name="OFIELD_Q6_NEAR">      0.00000000</i>
   <i name="OFIELD_Q6_FAR">      0.00000000</i>
   <i name="OFIELD_A">      0.00000000</i>
  </separator>
 </parameters>
 <atominfo>
  <atoms>       1 </atoms>
  <types>       1 </types>
  <array name="atoms" >
   <dimension dim="1">ion</dimension>
   <field type="string">element</field>
   <field type="int">atomtype</field>
   <set>
    <rc><c>Si</c><c>   1</c></rc>
   </set>
  </array>
  <array name="atomtypes" >
   <dimension dim="1">type</dimension>
   <field type="int">atomspertype</field>
   <field type="string">element</field>
   <field>mass</field>
   <field>valence</field>
   <field type="string">pseudopotential</field>
   <set>
    <rc><c>   1</c><c>Si</c><c>     28.08500000</c><c>      4.00000000</c><c> PAW_PBE Si 05Jan2001                   </c></rc>
   </set>
  </array>
 </atominfo>
 <structure name="initialpos" >
  <crystal>
   <varray name="basis" >
    <v>       1.95000000       1.95000000       0.00000000 </v>
    <v>       0.00000000       1.95000000       1.95000000 </v>
    <v>       1.95000000       0.00000000       1.95000000 </v>
   </varray>
   <i name="volume">     14.82975000 </i>
   <varray name="rec_basis" >
    <v>       0.25641026       0.25641026      -0.25641026 </v>
    <v>      -0.25641026       0.25641026       0.25641026 </v>
    <v>       0.25641026      -0.25641026       0.25641026 </v>
   </varray>
  </crystal>
  <varray name="positions" >
   <v>       0.00000000       0.00000000       0.00000000 </v>
  </varray>
 </structure>
 <calculation>
  <scstep>
   <time name="dav">    0.45    0.45</time>
   <time name="total">    0.45    0.51</time>
   <energy>
    <i name="alphaZ">      2.26996938 </i>
    <i name="ewald">   -135.42777035 </i>
    <i name="hartreedc">     -0.65300110 </i>
    <i name="XCdc">     -8.87078791 </i>
    <i name="pawpsdc">     32.97760406 </i>
    <i name="pawaedc">    -15.38426339 </i>
    <i name="eentropy">     -0.00235120 </i>
    <i name="bandstr">     17.36750053 </i>
    <i name="atom">    103.06077658 </i>
    <i name="e_fr_energy">     -4.66232341 </i>
    <i name="e_wo_entrp">     -4.65997221 </i>
    <i name="e_0_energy">     -4.66114781 </i>
   </energy>
  </scstep>
  <scstep>
   <time name="dav">    0.42    0.43</time>
   <time name="total">    0.43    0.43</time>
   <energy>
    <i name="e_fr_energy">     -4.88367103 </i>
    <i name="e_wo_entrp">     -4.88040688 </i>
    <i name="e_0_energy">     -4.88203896 </i>
   </energy>
  </scstep>
  <scstep>
   <time name="dav">    0.46    0.46</time>
   <time name="total">    0.47    0.47</time>
   <energy>
    <i name="e_fr_energy">     -4.88372909 </i>
    <i name="e_wo_entrp">     -4.88046514 </i>
    <i name="e_0_energy">     -4.88209711 </i>
   </energy>
  </scstep>
  <scstep>
   <time name="dav">    0.49    0.49</time>
   <time name="total">    0.49    0.50</time>
   <energy>
    <i name="e_fr_energy">     -4.88372909 </i>
    <i name="e_wo_entrp">     -4.88046515 </i>
    <i name="e_0_energy">     -4.88209712 </i>
   </energy>
  </scstep>
  <scstep>
   <time name="dav">    0.46    0.47</time>
   <time name="total">    0.47    0.48</time>
   <energy>
    <i name="e_fr_energy">     -4.88372909 </i>
    <i name="e_wo_entrp">     -4.88046515 </i>
    <i name="e_0_energy">     -4.88209712 </i>
   </energy>
  </scstep>
  <scstep>
   <time name="dav">    0.33    0.33</time>
   <time name="total">    0.33    0.34</time>
   <energy>
    <i name="e_fr_energy">     -4.87089704 </i>
    <i name="e_wo_entrp">     -4.86763762 </i>
    <i name="e_0_energy">     -4.86926733 </i>
   </energy>
  </scstep>
  <scstep>
   <time name="dav">    0.33    0.33</time>
   <time name="total">    0.34    0.34</time>
   <energy>
    <i name="e_fr_energy">     -4.86359109 </i>
    <i name="e_wo_entrp">     -4.86034030 </i>
    <i name="e_0_energy">     -4.86196570 </i>
   </energy>
  </scstep>
  <scstep>
   <time name="dav">    0.35    0.35</time>
   <time name="total">    0.36    0.37</time>
   <energy>
    <i name="e_fr_energy">     -4.86357306 </i>
    <i name="e_wo_entrp">     -4.86031874 </i>
    <i name="e_0_energy">     -4.86194590 </i>
   </energy>
  </scstep>
  <scstep>
   <time name="dav">    0.52    0.52</time>
   <time name="total">    0.53    0.53</time>
   <energy>
    <i name="alphaZ">      2.26996938 </i>
    <i name="ewald">   -135.42777035 </i>
    <i name="hartreedc">     -0.48916008 </i>
    <i name="XCdc">     -8.81703123 </i>
    <i name="pawpsdc">     34.02115165 </i>
    <i name="pawaedc">    -16.43548729 </i>
    <i name="eentropy">     -0.00325478 </i>
    <i name="bandstr">     16.95723230 </i>
    <i name="atom">    103.06077658 </i>
    <i name="e_fr_energy">     -4.86357383 </i>
    <i name="e_wo_entrp">     -4.86031905 </i>
    <i name="e_0_energy">     -4.86194644 </i>
   </energy>
  </scstep>
  <structure>
   <crystal>
    <varray name="basis" >
     <v>       1.95000000       1.95000000       0.00000000 </v>
     <v>       0.00000000       1.95000000       1.95000000 </v>
     <v>       1.95000000       0.00000000       1.95000000 </v>
    </varray>
    <i name="volume">     14.82975000 </i>
    <varray name="rec_basis" >
     <v>       0.25641026       0.25641026      -0.25641026 </v>
     <v>      -0.25641026       0.25641026       0.25641026 </v>
     <v>       0.25641026      -0.25641026       0.25641026 </v>
    </varray>
   </crystal>
   <varray name="positions" >
    <v>       0.00000000       0.00000000       0.00000000 </v>
   </varray>
  </structure>
  <varray name="forces" >
   <v>      -0.00000000       0.00000000       0.00000000 </v>
  </varray>
  <varray name="stress" >
   <v>     -21.55883675       0.00000000      -0.00000000 </v>
   <v>      -0.00000000     -21.55883675       0.00000000 </v>
   <v>       0.00000000       0.00000000     -21.55883675 </v>
  </varray>
  <energy>
   <i name="e_fr_energy">     -4.86357383 </i>
   <i name="e_wo_entrp">     -4.86194644 </i>
   <i name="e_0_energy">     -0.00325478 </i>
  </energy>
  <time name="totalsc">    3.94    4.07</time>
  <eigenvalues>
   <array>
    <dimension dim="1">band</dimension>
    <dimension dim="2">kpoint</dimension>
    <dimension dim="3">spin</dimension>
    <field>eigene</field>
    <field>occ</field>
    <set>
     <set comment="spin 1">
      <set comment="kpoint 1">
       <r>   -4.3786    1.0000 </r>
       <r>   20.6939    0.0000 </r>
       <r>   20.6941    0.0000 </r>
       <r>   20.6941    0.0000 </r>
       <r>   21.7705    0.0000 </r>
       <r>   21.7706    0.0000 </r>
       <r>   21.7706    0.0000 </r>
       <r>   26.9780    0.0000 </r>
       <r>   28.5750    0.0000 </r>
       <r>   28.5750    0.0000 </r>
       <r>   31.6948    0.0000 </r>
       <r>   34.8834    0.0000 </r>
       <r>   34.8834    0.0000 </r>
       <r>   34.8834    0.0000 </r>
       <r>   41.9994    0.0000 </r>
       <r>   62.8212    0.0000 </r>
      </set>
      <set comment="kpoint 2">
       <r>   -4.2511    1.0000 </r>
       <r>   18.7111    0.0000 </r>
       <r>   20.1220    0.0000 </r>
       <r>   20.1221    0.0000 </r>
       <r>   22.5310    0.0000 </r>
       <r>   22.5311    0.0000 </r>
       <r>   22.6894    0.0000 </r>
       <r>   28.0059    0.0000 </r>
       <r>   28.0059    0.0000 </r>
       <r>   28.0213    0.0000 </r>
       <r>   31.4799    0.0000 </r>
       <r>   35.0684    0.0000 </r>
       <r>   35.7946    0.0000 </r>
       <r>   35.7947    0.0000 </r>
       <r>   42.7361    0.0000 </r>
       <r>   61.4465    0.0000 </r>
      </set>
      <set comment="kpoint 3">
       <r>   -3.8697    1.0000 </r>
       <r>   15.9430    0.0000 </r>
       <r>   19.3904    0.0000 </r>
       <r>   19.3906    0.0000 </r>
       <r>   22.9485    0.0000 </r>
       <r>   23.5806    0.0000 </r>
       <r>   23.5809    0.0000 </r>
       <r>   26.9729    0.0000 </r>
       <r>   26.9732    0.0000 </r>
       <r>   30.1856    0.0000 </r>
       <r>   30.8057    0.0000 </r>
       <r>   36.1424    0.0000 </r>
       <r>   37.8921    0.0000 </r>
       <r>   37.8922    0.0000 </r>
       <r>   44.6015    0.0000 </r>
       <r>   57.9381    0.0000 </r>
      </set>
      <set comment="kpoint 4">
       <r>   -3.2358    1.0000 </r>
       <r>   13.1559    0.0000 </r>
       <r>   18.8207    0.0000 </r>
       <r>   18.8208    0.0000 </r>
       <r>   22.8666    0.0000 </r>
       <r>   23.8266    0.0000 </r>
       <r>   23.8273    0.0000 </r>
       <r>   26.9186    0.0000 </r>
       <r>   26.9193    0.0000 </r>
       <r>   29.3975    0.0000 </r>
       <r>   32.8382    0.0000 </r>
       <r>   38.3904    0.0000 </r>
       <r>   40.5397    0.0000 </r>
       <r>   40.5398    0.0000 </r>
       <r>   47.1189    0.0000 </r>
       <r>   54.1524    0.0000 </r>
      </set>
      <set comment="kpoint 5">
       <r>   -2.3520    1.0000 </r>
       <r>   10.4960    0.0000 </r>
       <r>   18.4384    0.0000 </r>
       <r>   18.4385    0.0000 </r>
       <r>   22.7644    0.0000 </r>
       <r>   22.9758    0.0000 </r>
       <r>   22.9764    0.0000 </r>
       <r>   28.1410    0.0000 </r>
       <r>   28.2769    0.0000 </r>
       <r>   28.2778    0.0000 </r>
       <r>   35.1056    0.0000 </r>
       <r>   41.5255    0.0000 </r>
       <r>   43.3960    0.0000 </r>
       <r>   43.3963    0.0000 </r>
       <r>   49.9626    0.0000 </r>
       <r>   50.6321    0.0000 </r>
      </set>
      <set comment="kpoint 6">
       <r>   -1.2216    1.0000 </r>
       <r>    8.0149    1.0000 </r>
       <r>   18.2377    0.0000 </r>
       <r>   18.2379    0.0000 </r>
       <r>   22.0024    0.0000 </r>
       <r>   22.0029    0.0000 </r>
       <r>   22.7701    0.0000 </r>
       <r>   27.0089    0.0000 </r>
       <r>   30.1894    0.0000 </r>
       <r>   30.1904    0.0000 </r>
       <r>   37.2506    0.0000 </r>
       <r>   45.1919    0.0000 </r>
       <r>   45.2094    0.0000 </r>
       <r>   45.2106    0.0000 </r>
       <r>   48.7756    0.0000 </r>
       <r>   48.7764    0.0000 </r>
      </set>
      <set comment="kpoint 7">
       <r>    0.1470    1.0000 </r>
       <r>    5.7367    1.0000 </r>
       <r>   18.1749    0.0000 </r>
       <r>   18.1750    0.0000 </r>
       <r>   21.2287    0.0000 </r>
       <r>   21.2292    0.0000 </r>
       <r>   22.8592    0.0000 </r>
       <r>   26.1166    0.0000 </r>
       <r>   32.1895    0.0000 </r>
       <r>   32.1908    0.0000 </r>
       <r>   39.2003    0.0000 </r>
       <r>   43.2861    0.0000 </r>
       <r>   43.2867    0.0000 </r>
       <r>   48.8096    0.0000 </r>
       <r>   50.7804    0.0000 </r>
       <r>   51.2186    0.0000 </r>
      </set>
      <set comment="kpoint 8">
       <r>    1.7167    1.0000 </r>
       <r>    3.7098    1.0000 </r>
       <r>   18.1846    0.0000 </r>
       <r>   18.1847    0.0000 </r>
       <r>   20.7920    0.0000 </r>
       <r>   20.7925    0.0000 </r>
       <r>   22.9615    0.0000 </r>
       <r>   25.5955    0.0000 </r>
       <r>   33.8230    0.0000 </r>
       <r>   33.8245    0.0000 </r>
       <r>   40.5722    0.0000 </r>
       <r>   41.3507    0.0000 </r>
       <r>   41.3507    0.0000 </r>
       <r>   48.8144    0.0000 </r>
       <r>   52.7559    0.0000 </r>
       <r>   54.3631    0.0000 </r>
      </set>
      <set comment="kpoint 9">
       <r>   -4.2086    1.0000 </r>
       <r>   19.1674    0.0000 </r>
       <r>   19.1675    0.0000 </r>
       <r>   20.2922    0.0000 </r>
       <r>   20.8888    0.0000 </r>
       <r>   23.5592    0.0000 </r>
       <r>   23.5592    0.0000 </r>
       <r>   26.8712    0.0000 </r>
       <r>   28.2555    0.0000 </r>
       <r>   28.7653    0.0000 </r>
       <r>   31.9261    0.0000 </r>
       <r>   35.1320    0.0000 </r>
       <r>   35.1321    0.0000 </r>
       <r>   36.4049    0.0000 </r>
       <r>   43.0748    0.0000 </r>
       <r>   61.1019    0.0000 </r>
      </set>
      <set comment="kpoint 10">
       <r>   -3.9120    1.0000 </r>
       <r>   16.9329    0.0000 </r>
       <r>   18.3444    0.0000 </r>
       <r>   19.8390    0.0000 </r>
       <r>   21.2828    0.0000 </r>
       <r>   24.2487    0.0000 </r>
       <r>   24.6837    0.0000 </r>
       <r>   25.4021    0.0000 </r>
       <r>   28.4063    0.0000 </r>
       <r>   30.0312    0.0000 </r>
       <r>   31.8482    0.0000 </r>
       <r>   35.8085    0.0000 </r>
       <r>   36.2505    0.0000 </r>
       <r>   38.0028    0.0000 </r>
       <r>   44.7244    0.0000 </r>
       <r>   58.0137    0.0000 </r>
      </set>
      <set comment="kpoint 11">
       <r>   -3.3622    1.0000 </r>
       <r>   14.1626    0.0000 </r>
       <r>   17.7168    0.0000 </r>
       <r>   19.2189    0.0000 </r>
       <r>   21.9738    0.0000 </r>
       <r>   24.0723    0.0000 </r>
       <r>   24.8840    0.0000 </r>
       <r>   25.3054    0.0000 </r>
       <r>   28.1357    0.0000 </r>
       <r>   30.7409    0.0000 </r>
       <r>   32.5944    0.0000 </r>
       <r>   37.6789    0.0000 </r>
       <r>   38.5121    0.0000 </r>
       <r>   40.3990    0.0000 </r>
       <r>   47.1185    0.0000 </r>
       <r>   54.1257    0.0000 </r>
      </set>
      <set comment="kpoint 12">
       <r>   -2.5618    1.0000 </r>
       <r>   11.4639    0.0000 </r>
       <r>   17.2962    0.0000 </r>
       <r>   18.6977    0.0000 </r>
       <r>   21.4843    0.0000 </r>
       <r>   23.8360    0.0000 </r>
       <r>   24.6845    0.0000 </r>
       <r>   25.8886    0.0000 </r>
       <r>   29.1835    0.0000 </r>
       <r>   29.5736    0.0000 </r>
       <r>   34.9120    0.0000 </r>
       <r>   40.5338    0.0000 </r>
       <r>   41.2554    0.0000 </r>
       <r>   43.1926    0.0000 </r>
       <r>   49.9048    0.0000 </r>
       <r>   50.4158    0.0000 </r>
      </set>
      <set comment="kpoint 13">
       <r>   -1.5138    1.0000 </r>
       <r>    8.9233    1.0000 </r>
       <r>   17.0881    0.0000 </r>
       <r>   18.2478    0.0000 </r>
       <r>   20.6667    0.0000 </r>
       <r>   23.6736    0.0000 </r>
       <r>   23.7994    0.0000 </r>
       <r>   27.4498    0.0000 </r>
       <r>   28.6444    0.0000 </r>
       <r>   30.9269    0.0000 </r>
       <r>   37.1029    0.0000 </r>
       <r>   43.8088    0.0000 </r>
       <r>   43.9380    0.0000 </r>
       <r>   45.8144    0.0000 </r>
       <r>   47.5844    0.0000 </r>
       <r>   49.6354    0.0000 </r>
      </set>
      <set comment="kpoint 14">
       <r>   -0.2234    1.0000 </r>
       <r>    6.5774    1.0000 </r>
       <r>   17.0863    0.0000 </r>
       <r>   17.7791    0.0000 </r>
       <r>   20.1456    0.0000 </r>
       <r>   22.7313    0.0000 </r>
       <r>   23.8291    0.0000 </r>
       <r>   27.3263    0.0000 </r>
       <r>   29.9245    0.0000 </r>
       <r>   32.7869    0.0000 </r>
       <r>   39.1509    0.0000 </r>
       <r>   43.0356    0.0000 </r>
       <r>   44.7205    0.0000 </r>
       <r>   47.7826    0.0000 </r>
       <r>   48.8621    0.0000 </r>
       <r>   51.0231    0.0000 </r>
      </set>
      <set comment="kpoint 15">
       <r>    1.2899    1.0000 </r>
       <r>    4.4560    1.0000 </r>
       <r>   17.2659    0.0000 </r>
       <r>   17.2798    0.0000 </r>
       <r>   20.0890    0.0000 </r>
       <r>   21.9662    0.0000 </r>
       <r>   23.8433    0.0000 </r>
       <r>   26.8060    0.0000 </r>
       <r>   31.9441    0.0000 </r>
       <r>   34.1055    0.0000 </r>
       <r>   40.7508    0.0000 </r>
       <r>   41.3364    0.0000 </r>
       <r>   42.3724    0.0000 </r>
       <r>   49.7788    0.0000 </r>
       <r>   51.6586    0.0000 </r>
       <r>   52.1847    0.0000 </r>
      </set>
      <set comment="kpoint 16">
       <r>    2.3153    1.0000 </r>
       <r>    3.2777    1.0000 </r>
       <r>   16.8048    0.0000 </r>
       <r>   17.6458    0.0000 </r>
       <r>   20.4063    0.0000 </r>
       <r>   21.4576    0.0000 </r>
       <r>   23.7764    0.0000 </r>
       <r>   26.7203    0.0000 </r>
       <r>   33.3924    0.0000 </r>
       <r>   33.5655    0.0000 </r>
       <r>   40.5444    0.0000 </r>
       <r>   41.5734    0.0000 </r>
       <r>   41.6657    0.0000 </r>
       <r>   49.2818    0.0000 </r>
       <r>   52.9164    0.0000 </r>
       <r>   54.0821    0.0000 </r>
      </set>
      <set comment="kpoint 17">
       <r>    0.7635    1.0000 </r>
       <r>    5.1345    1.0000 </r>
       <r>   16.4832    0.0000 </r>
       <r>   18.1484    0.0000 </r>
       <r>   21.0392    0.0000 </r>
       <r>   21.2674    0.0000 </r>
       <r>   23.6421    0.0000 </r>
       <r>   27.0998    0.0000 </r>
       <r>   31.7285    0.0000 </r>
       <r>   33.1785    0.0000 </r>
       <r>   40.3621    0.0000 </r>
       <r>   41.3132    0.0000 </r>
       <r>   43.7487    0.0000 </r>
       <r>   49.4456    0.0000 </r>
       <r>   50.6701    0.0000 </r>
       <r>   51.3792    0.0000 </r>
      </set>
      <set comment="kpoint 18">
       <r>   -0.6801    1.0000 </r>
       <r>    7.3356    1.0000 </r>
       <r>   16.3450    0.0000 </r>
       <r>   18.7030    0.0000 </r>
       <r>   21.4319    0.0000 </r>
       <r>   21.9109    0.0000 </r>
       <r>   23.5073    0.0000 </r>
       <r>   27.8133    0.0000 </r>
       <r>   29.5767    0.0000 </r>
       <r>   31.6255    0.0000 </r>
       <r>   38.5943    0.0000 </r>
       <r>   43.1464    0.0000 </r>
       <r>   46.2154    0.0000 </r>
       <r>   46.3869    0.0000 </r>
       <r>   47.6368    0.0000 </r>
       <r>   50.7454    0.0000 </r>
      </set>
      <set comment="kpoint 19">
       <r>   -1.8906    1.0000 </r>
       <r>    9.7495    0.9182 </r>
       <r>   16.4138    0.0000 </r>
       <r>   19.2455    0.0000 </r>
       <r>   21.9855    0.0000 </r>
       <r>   22.9708    0.0000 </r>
       <r>   23.4510    0.0000 </r>
       <r>   27.5258    0.0000 </r>
       <r>   28.4562    0.0000 </r>
       <r>   30.1311    0.0000 </r>
       <r>   36.4771    0.0000 </r>
       <r>   42.4585    0.0000 </r>
       <r>   42.9807    0.0000 </r>
       <r>   45.7714    0.0000 </r>
       <r>   47.7652    0.0000 </r>
       <r>   51.0885    0.0000 </r>
      </set>
      <set comment="kpoint 20">
       <r>   -2.8563    1.0000 </r>
       <r>   12.3480    0.0000 </r>
       <r>   16.6917    0.0000 </r>
       <r>   19.7873    0.0000 </r>
       <r>   22.7645    0.0000 </r>
       <r>   23.4639    0.0000 </r>
       <r>   24.1121    0.0000 </r>
       <r>   25.8914    0.0000 </r>
       <r>   27.6821    0.0000 </r>
       <r>   30.4355    0.0000 </r>
       <r>   34.2269    0.0000 </r>
       <r>   39.4913    0.0000 </r>
       <r>   39.9063    0.0000 </r>
       <r>   42.9852    0.0000 </r>
       <r>   48.7099    0.0000 </r>
       <r>   50.9860    0.0000 </r>
      </set>
      <set comment="kpoint 21">
       <r>   -3.5735    1.0000 </r>
       <r>   15.0891    0.0000 </r>
       <r>   17.1831    0.0000 </r>
       <r>   20.3650    0.0000 </r>
       <r>   22.8571    0.0000 </r>
       <r>   23.4230    0.0000 </r>
       <r>   24.7005    0.0000 </r>
       <r>   25.5327    0.0000 </r>
       <r>   27.0512    0.0000 </r>
       <r>   31.2385    0.0000 </r>
       <r>   31.9723    0.0000 </r>
       <r>   36.7819    0.0000 </r>
       <r>   37.5647    0.0000 </r>
       <r>   40.1866    0.0000 </r>
       <r>   46.0395    0.0000 </r>
       <r>   54.7024    0.0000 </r>
      </set>
      <set comment="kpoint 22">
       <r>   -4.0391    1.0000 </r>
       <r>   17.7670    0.0000 </r>
       <r>   17.9522    0.0000 </r>
       <r>   20.7659    0.0000 </r>
       <r>   22.1251    0.0000 </r>
       <r>   23.0701    0.0000 </r>
       <r>   24.0180    0.0000 </r>
       <r>   26.6466    0.0000 </r>
       <r>   27.7308    0.0000 </r>
       <r>   29.4142    0.0000 </r>
       <r>   31.7438    0.0000 </r>
       <r>   35.4057    0.0000 </r>
       <r>   36.0112    0.0000 </r>
       <r>   37.6925    0.0000 </r>
       <r>   43.8997    0.0000 </r>
       <r>   58.4430    0.0000 </r>
      </set>
      <set comment="kpoint 23">
       <r>   -3.7002    1.0000 </r>
       <r>   17.4487    0.0000 </r>
       <r>   17.4488    0.0000 </r>
       <r>   19.2221    0.0000 </r>
       <r>   19.2535    0.0000 </r>
       <r>   23.6078    0.0000 </r>
       <r>   25.8949    0.0000 </r>
       <r>   25.8949    0.0000 </r>
       <r>   29.2226    0.0000 </r>
       <r>   30.9174    0.0000 </r>
       <r>   33.2351    0.0000 </r>
       <r>   35.8898    0.0000 </r>
       <r>   35.8899    0.0000 </r>
       <r>   38.2282    0.0000 </r>
       <r>   46.2947    0.0000 </r>
       <r>   57.6889    0.0000 </r>
      </set>
      <set comment="kpoint 24">
       <r>   -3.2354    1.0000 </r>
       <r>   15.3111    0.0000 </r>
       <r>   16.7502    0.0000 </r>
       <r>   18.4986    0.0000 </r>
       <r>   19.6770    0.0000 </r>
       <r>   22.2534    0.0000 </r>
       <r>   26.6024    0.0000 </r>
       <r>   26.8483    0.0000 </r>
       <r>   29.3067    0.0000 </r>
       <r>   32.6498    0.0000 </r>
       <r>   33.3526    0.0000 </r>
       <r>   37.2094    0.0000 </r>
       <r>   37.3076    0.0000 </r>
       <r>   39.6351    0.0000 </r>
       <r>   48.6216    0.0000 </r>
       <r>   54.2252    0.0000 </r>
      </set>
      <set comment="kpoint 25">
       <r>   -2.5193    1.0000 </r>
       <r>   12.6333    0.0000 </r>
       <r>   16.2654    0.0000 </r>
       <r>   17.7604    0.0000 </r>
       <r>   19.6575    0.0000 </r>
       <r>   22.5274    0.0000 </r>
       <r>   26.6225    0.0000 </r>
       <r>   26.7536    0.0000 </r>
       <r>   30.1534    0.0000 </r>
       <r>   31.8895    0.0000 </r>
       <r>   35.4069    0.0000 </r>
       <r>   39.5781    0.0000 </r>
       <r>   39.8950    0.0000 </r>
       <r>   42.0284    0.0000 </r>
       <r>   50.4439    0.0000 </r>
       <r>   51.3389    0.0000 </r>
      </set>
      <set comment="kpoint 26">
       <r>   -1.5546    1.0000 </r>
       <r>   10.0543    0.0018 </r>
       <r>   15.9982    0.0000 </r>
       <r>   16.9502    0.0000 </r>
       <r>   19.0899    0.0000 </r>
       <r>   23.9584    0.0000 </r>
       <r>   25.6808    0.0000 </r>
       <r>   26.9486    0.0000 </r>
       <r>   30.7954    0.0000 </r>
       <r>   31.7525    0.0000 </r>
       <r>   37.6689    0.0000 </r>
       <r>   42.3098    0.0000 </r>
       <r>   42.9729    0.0000 </r>
       <r>   44.9327    0.0000 </r>
       <r>   47.1524    0.0000 </r>
       <r>   49.7865    0.0000 </r>
      </set>
      <set comment="kpoint 27">
       <r>   -0.3460    1.0000 </r>
       <r>    7.6500    1.0000 </r>
       <r>   15.9436    0.0000 </r>
       <r>   16.0772    0.0000 </r>
       <r>   18.8150    0.0000 </r>
       <r>   24.6939    0.0000 </r>
       <r>   25.1587    0.0000 </r>
       <r>   27.6935    0.0000 </r>
       <r>   29.9126    0.0000 </r>
       <r>   33.4363    0.0000 </r>
       <r>   39.7689    0.0000 </r>
       <r>   43.0143    0.0000 </r>
       <r>   44.9868    0.0000 </r>
       <r>   46.7893    0.0000 </r>
       <r>   46.8197    0.0000 </r>
       <r>   49.9921    0.0000 </r>
      </set>
      <set comment="kpoint 28">
       <r>    1.0954    1.0000 </r>
       <r>    5.4547    1.0000 </r>
       <r>   15.2691    0.0000 </r>
       <r>   16.1080    0.0000 </r>
       <r>   18.9003    0.0000 </r>
       <r>   23.8645    0.0000 </r>
       <r>   25.5473    0.0000 </r>
       <r>   29.1640    0.0000 </r>
       <r>   29.6008    0.0000 </r>
       <r>   34.4257    0.0000 </r>
       <r>   41.3193    0.0000 </r>
       <r>   41.6508    0.0000 </r>
       <r>   43.2139    0.0000 </r>
       <r>   49.9202    0.0000 </r>
       <r>   49.9748    0.0000 </r>
       <r>   52.4135    0.0000 </r>
      </set>
      <set comment="kpoint 29">
       <r>    2.6485    1.0000 </r>
       <r>    3.5980    1.0000 </r>
       <r>   14.6133    0.0000 </r>
       <r>   16.4816    0.0000 </r>
       <r>   19.2785    0.0000 </r>
       <r>   23.2334    0.0000 </r>
       <r>   25.4680    0.0000 </r>
       <r>   29.2750    0.0000 </r>
       <r>   31.3130    0.0000 </r>
       <r>   33.5006    0.0000 </r>
       <r>   40.2552    0.0000 </r>
       <r>   42.2551    0.0000 </r>
       <r>   43.2978    0.0000 </r>
       <r>   50.7702    0.0000 </r>
       <r>   52.4558    0.0000 </r>
       <r>   53.3928    0.0000 </r>
      </set>
      <set comment="kpoint 30">
       <r>    1.6207    1.0000 </r>
       <r>    4.7769    1.0000 </r>
       <r>   14.1519    0.0000 </r>
       <r>   17.0522    0.0000 </r>
       <r>   19.9092    0.0000 </r>
       <r>   22.8060    0.0000 </r>
       <r>   25.2450    0.0000 </r>
       <r>   29.5658    0.0000 </r>
       <r>   31.4588    0.0000 </r>
       <r>   32.4324    0.0000 </r>
       <r>   39.3770    0.0000 </r>
       <r>   42.8796    0.0000 </r>
       <r>   44.4075    0.0000 </r>
       <r>   48.9473    0.0000 </r>
       <r>   51.5833    0.0000 </r>
       <r>   52.4060    0.0000 </r>
      </set>
      <set comment="kpoint 31">
       <r>    0.1094    1.0000 </r>
       <r>    6.8921    1.0000 </r>
       <r>   13.9049    0.0000 </r>
       <r>   17.8025    0.0000 </r>
       <r>   20.7709    0.0000 </r>
       <r>   22.6449    0.0000 </r>
       <r>   25.0208    0.0000 </r>
       <r>   29.1894    0.0000 </r>
       <r>   29.9423    0.0000 </r>
       <r>   32.1127    0.0000 </r>
       <r>   39.8931    0.0000 </r>
       <r>   41.7747    0.0000 </r>
       <r>   45.9905    0.0000 </r>
       <r>   47.0597    0.0000 </r>
       <r>   48.6413    0.0000 </r>
       <r>   52.9710    0.0000 </r>
      </set>
      <set comment="kpoint 32">
       <r>   -1.1788    1.0000 </r>
       <r>    9.2276    1.0000 </r>
       <r>   13.8804    0.0000 </r>
       <r>   18.6937    0.0000 </r>
       <r>   21.8566    0.0000 </r>
       <r>   22.7653    0.0000 </r>
       <r>   24.8207    0.0000 </r>
       <r>   27.0097    0.0000 </r>
       <r>   29.4490    0.0000 </r>
       <r>   31.9783    0.0000 </r>
       <r>   38.2808    0.0000 </r>
       <r>   42.1115    0.0000 </r>
       <r>   44.3937    0.0000 </r>
       <r>   44.9618    0.0000 </r>
       <r>   48.1945    0.0000 </r>
       <r>   51.7948    0.0000 </r>
      </set>
      <set comment="kpoint 33">
       <r>   -2.2256    1.0000 </r>
       <r>   11.7408    0.0000 </r>
       <r>   14.0926    0.0000 </r>
       <r>   19.6399    0.0000 </r>
       <r>   23.0930    0.0000 </r>
       <r>   23.1330    0.0000 </r>
       <r>   24.6000    0.0000 </r>
       <r>   25.1673    0.0000 </r>
       <r>   28.1304    0.0000 </r>
       <r>   32.6783    0.0000 </r>
       <r>   35.8333    0.0000 </r>
       <r>   40.0325    0.0000 </r>
       <r>   40.9485    0.0000 </r>
       <r>   45.7052    0.0000 </r>
       <r>   47.5222    0.0000 </r>
       <r>   51.1325    0.0000 </r>
      </set>
      <set comment="kpoint 34">
       <r>   -3.0248    1.0000 </r>
       <r>   14.1899    0.0000 </r>
       <r>   14.7347    0.0000 </r>
       <r>   20.4244    0.0000 </r>
       <r>   23.1065    0.0000 </r>
       <r>   24.1581    0.0000 </r>
       <r>   24.2880    0.0000 </r>
       <r>   24.4687    0.0000 </r>
       <r>   27.1112    0.0000 </r>
       <r>   32.9823    0.0000 </r>
       <r>   33.5077    0.0000 </r>
       <r>   37.5814    0.0000 </r>
       <r>   38.7150    0.0000 </r>
       <r>   42.8362    0.0000 </r>
       <r>   48.3635    0.0000 </r>
       <r>   51.0065    0.0000 </r>
      </set>
      <set comment="kpoint 35">
       <r>   -2.8557    1.0000 </r>
       <r>   15.9816    0.0000 </r>
       <r>   15.9817    0.0000 </r>
       <r>   17.5043    0.0000 </r>
       <r>   17.6964    0.0000 </r>
       <r>   20.5775    0.0000 </r>
       <r>   28.2876    0.0000 </r>
       <r>   28.2876    0.0000 </r>
       <r>   29.9728    0.0000 </r>
       <r>   34.1837    0.0000 </r>
       <r>   35.1469    0.0000 </r>
       <r>   37.2280    0.0000 </r>
       <r>   37.2281    0.0000 </r>
       <r>   39.6668    0.0000 </r>
       <r>   50.8838    0.0000 </r>
       <r>   54.1782    0.0000 </r>
      </set>
      <set comment="kpoint 36">
       <r>   -2.2246    1.0000 </r>
       <r>   13.9367    0.0000 </r>
       <r>   15.4259    0.0000 </r>
       <r>   16.4440    0.0000 </r>
       <r>   17.9160    0.0000 </r>
       <r>   20.0890    0.0000 </r>
       <r>   28.6643    0.0000 </r>
       <r>   29.0119    0.0000 </r>
       <r>   30.8489    0.0000 </r>
       <r>   34.7386    0.0000 </r>
       <r>   36.3283    0.0000 </r>
       <r>   38.7492    0.0000 </r>
       <r>   39.4951    0.0000 </r>
       <r>   40.9588    0.0000 </r>
       <r>   50.6877    0.0000 </r>
       <r>   52.0858    0.0000 </r>
      </set>
      <set comment="kpoint 37">
       <r>   -1.3445    1.0000 </r>
       <r>   11.3847    0.0000 </r>
       <r>   15.0852    0.0000 </r>
       <r>   15.2686    0.0000 </r>
       <r>   17.8075    0.0000 </r>
       <r>   21.3069    0.0000 </r>
       <r>   27.8848    0.0000 </r>
       <r>   29.1793    0.0000 </r>
       <r>   32.4692    0.0000 </r>
       <r>   33.7381    0.0000 </r>
       <r>   38.6154    0.0000 </r>
       <r>   41.1859    0.0000 </r>
       <r>   42.3484    0.0000 </r>
       <r>   43.5646    0.0000 </r>
       <r>   47.1896    0.0000 </r>
       <r>   49.6386    0.0000 </r>
      </set>
      <set comment="kpoint 38">
       <r>   -0.2190    1.0000 </r>
       <r>    8.9441    1.0000 </r>
       <r>   14.1400    0.0000 </r>
       <r>   14.9687    0.0000 </r>
       <r>   17.6791    0.0000 </r>
       <r>   23.1869    0.0000 </r>
       <r>   26.9281    0.0000 </r>
       <r>   29.1471    0.0000 </r>
       <r>   32.9282    0.0000 </r>
       <r>   34.0957    0.0000 </r>
       <r>   40.7729    0.0000 </r>
       <r>   43.2237    0.0000 </r>
       <r>   44.4933    0.0000 </r>
       <r>   45.2523    0.0000 </r>
       <r>   46.2260    0.0000 </r>
       <r>   48.8343    0.0000 </r>
      </set>
      <set comment="kpoint 39">
       <r>    1.1430    1.0000 </r>
       <r>    6.6885    1.0000 </r>
       <r>   13.1600    0.0000 </r>
       <r>   15.0706    0.0000 </r>
       <r>   17.7685    0.0000 </r>
       <r>   25.1587    0.0000 </r>
       <r>   26.0374    0.0000 </r>
       <r>   29.0179    0.0000 </r>
       <r>   32.4552    0.0000 </r>
       <r>   34.7823    0.0000 </r>
       <r>   41.9608    0.0000 </r>
       <r>   42.2704    0.0000 </r>
       <r>   43.9489    0.0000 </r>
       <r>   47.9827    0.0000 </r>
       <r>   48.5156    0.0000 </r>
       <r>   52.0828    0.0000 </r>
      </set>
      <set comment="kpoint 40">
       <r>    2.7082    1.0000 </r>
       <r>    4.6728    1.0000 </r>
       <r>   12.3779    0.0000 </r>
       <r>   15.3901    0.0000 </r>
       <r>   18.1149    0.0000 </r>
       <r>   25.3371    0.0000 </r>
       <r>   26.6699    0.0000 </r>
       <r>   29.3474    0.0000 </r>
       <r>   32.3561    0.0000 </r>
       <r>   33.5658    0.0000 </r>
       <r>   40.3494    0.0000 </r>
       <r>   43.0275    0.0000 </r>
       <r>   44.8999    0.0000 </r>
       <r>   50.7854    0.0000 </r>
       <r>   51.4143    0.0000 </r>
       <r>   51.9108    0.0000 </r>
      </set>
      <set comment="kpoint 41">
       <r>    2.7076    1.0000 </r>
       <r>    4.6718    1.0000 </r>
       <r>   11.8126    0.0000 </r>
       <r>   15.9224    0.0000 </r>
       <r>   18.7024    0.0000 </r>
       <r>   24.8369    0.0000 </r>
       <r>   26.9767    0.0000 </r>
       <r>   30.5369    0.0000 </r>
       <r>   31.3814    0.0000 </r>
       <r>   32.5158    0.0000 </r>
       <r>   38.8258    0.0000 </r>
       <r>   44.9115    0.0000 </r>
       <r>   45.1869    0.0000 </r>
       <r>   48.3921    0.0000 </r>
       <r>   52.6724    0.0000 </r>
       <r>   53.8464    0.0000 </r>
      </set>
      <set comment="kpoint 42">
       <r>    1.1420    1.0000 </r>
       <r>    6.6826    1.0000 </r>
       <r>   11.4781    0.0000 </r>
       <r>   16.6583    0.0000 </r>
       <r>   19.5199    0.0000 </r>
       <r>   24.5574    0.0000 </r>
       <r>   26.7412    0.0000 </r>
       <r>   29.0114    0.0000 </r>
       <r>   30.8747    0.0000 </r>
       <r>   33.1958    0.0000 </r>
       <r>   38.6116    0.0000 </r>
       <r>   42.8257    0.0000 </r>
       <r>   46.4089    0.0000 </r>
       <r>   47.8677    0.0000 </r>
       <r>   50.3606    0.0000 </r>
       <r>   54.1662    0.0000 </r>
      </set>
      <set comment="kpoint 43">
       <r>   -0.2203    1.0000 </r>
       <r>    8.9172    1.0000 </r>
       <r>   11.3923    0.0000 </r>
       <r>   17.5769    0.0000 </r>
       <r>   20.5575    0.0000 </r>
       <r>   24.4904    0.0000 </r>
       <r>   26.3174    0.0000 </r>
       <r>   26.7536    0.0000 </r>
       <r>   29.9485    0.0000 </r>
       <r>   34.2337    0.0000 </r>
       <r>   38.3212    0.0000 </r>
       <r>   41.9015    0.0000 </r>
       <r>   44.5425    0.0000 </r>
       <r>   46.4232    0.0000 </r>
       <r>   50.2100    0.0000 </r>
       <r>   52.3823    0.0000 </r>
      </set>
      <set comment="kpoint 44">
       <r>   -1.3455    1.0000 </r>
       <r>   11.0670    0.0000 </r>
       <r>   11.8151    0.0000 </r>
       <r>   18.6303    0.0000 </r>
       <r>   21.7726    0.0000 </r>
       <r>   24.6581    0.0000 </r>
       <r>   24.7702    0.0000 </r>
       <r>   25.6397    0.0000 </r>
       <r>   28.8594    0.0000 </r>
       <r>   34.6659    0.0000 </r>
       <r>   36.3240    0.0000 </r>
       <r>   42.5918    0.0000 </r>
       <r>   42.6613    0.0000 </r>
       <r>   44.3195    0.0000 </r>
       <r>   48.5161    0.0000 </r>
       <r>   53.6222    0.0000 </r>
      </set>
      <set comment="kpoint 45">
       <r>   -1.6783    1.0000 </r>
       <r>   14.7949    0.0000 </r>
       <r>   14.7950    0.0000 </r>
       <r>   14.8931    0.0000 </r>
       <r>   16.3770    0.0000 </r>
       <r>   18.6862    0.0000 </r>
       <r>   30.5960    0.0000 </r>
       <r>   30.5960    0.0000 </r>
       <r>   30.9895    0.0000 </r>
       <r>   37.4078    0.0000 </r>
       <r>   37.8681    0.0000 </r>
       <r>   39.2194    0.0000 </r>
       <r>   39.2194    0.0000 </r>
       <r>   41.1239    0.0000 </r>
       <r>   50.9484    0.0000 </r>
       <r>   50.9484    0.0000 </r>
      </set>
      <set comment="kpoint 46">
       <r>   -0.8839    1.0000 </r>
       <r>   12.7925    0.0000 </r>
       <r>   13.6079    0.0000 </r>
       <r>   14.3854    0.0000 </r>
       <r>   16.6554    0.0000 </r>
       <r>   18.8387    0.0000 </r>
       <r>   30.1808    0.0000 </r>
       <r>   31.2814    0.0000 </r>
       <r>   32.7664    0.0000 </r>
       <r>   37.0892    0.0000 </r>
       <r>   39.8380    0.0000 </r>
       <r>   40.9270    0.0000 </r>
       <r>   42.2056    0.0000 </r>
       <r>   42.3011    0.0000 </r>
       <r>   47.5614    0.0000 </r>
       <r>   49.1842    0.0000 </r>
      </set>
      <set comment="kpoint 47">
       <r>    0.1561    1.0000 </r>
       <r>   10.4177    0.0000 </r>
       <r>   12.2863    0.0000 </r>
       <r>   14.1969    0.0000 </r>
       <r>   16.7286    0.0000 </r>
       <r>   20.4271    0.0000 </r>
       <r>   29.3011    0.0000 </r>
       <r>   31.3168    0.0000 </r>
       <r>   34.4712    0.0000 </r>
       <r>   36.3443    0.0000 </r>
       <r>   42.0380    0.0000 </r>
       <r>   43.3782    0.0000 </r>
       <r>   43.7019    0.0000 </r>
       <r>   44.6598    0.0000 </r>
       <r>   45.6413    0.0000 </r>
       <r>   48.0253    0.0000 </r>
      </set>
      <set comment="kpoint 48">
       <r>    1.4355    1.0000 </r>
       <r>    8.1354    1.0000 </r>
       <r>   11.1709    0.0000 </r>
       <r>   14.2295    0.0000 </r>
       <r>   16.8206    0.0000 </r>
       <r>   22.5291    0.0000 </r>
       <r>   28.4139    0.0000 </r>
       <r>   30.9632    0.0000 </r>
       <r>   35.1348    0.0000 </r>
       <r>   35.8781    0.0000 </r>
       <r>   42.6228    0.0000 </r>
       <r>   43.0557    0.0000 </r>
       <r>   44.7502    0.0000 </r>
       <r>   46.4607    0.0000 </r>
       <r>   47.1883    0.0000 </r>
       <r>   51.0627    0.0000 </r>
      </set>
      <set comment="kpoint 49">
       <r>    2.9372    1.0000 </r>
       <r>    6.0467    1.0000 </r>
       <r>   10.2790    0.0000 </r>
       <r>   14.4827    0.0000 </r>
       <r>   17.1160    0.0000 </r>
       <r>   24.8360    0.0000 </r>
       <r>   27.6600    0.0000 </r>
       <r>   30.4124    0.0000 </r>
       <r>   33.7733    0.0000 </r>
       <r>   35.6119    0.0000 </r>
       <r>   40.8645    0.0000 </r>
       <r>   43.8315    0.0000 </r>
       <r>   46.2039    0.0000 </r>
       <r>   49.5413    0.0000 </r>
       <r>   49.6063    0.0000 </r>
       <r>   50.9494    0.0000 </r>
      </set>
      <set comment="kpoint 50">
       <r>    3.9702    1.0000 </r>
       <r>    4.8614    1.0000 </r>
       <r>    9.6220    0.9993 </r>
       <r>   14.9540    0.0000 </r>
       <r>   17.6457    0.0000 </r>
       <r>   27.0811    0.0000 </r>
       <r>   27.0917    0.0000 </r>
       <r>   29.8268    0.0000 </r>
       <r>   31.5173    0.0000 </r>
       <r>   35.3032    0.0000 </r>
       <r>   39.4841    0.0000 </r>
       <r>   45.5606    0.0000 </r>
       <r>   45.9534    0.0000 </r>
       <r>   48.9475    0.0000 </r>
       <r>   51.9756    0.0000 </r>
       <r>   52.0231    0.0000 </r>
      </set>
      <set comment="kpoint 51">
       <r>    2.4118    1.0000 </r>
       <r>    6.6915    1.0000 </r>
       <r>    9.2210    1.0000 </r>
       <r>   15.6374    0.0000 </r>
       <r>   18.4054    0.0000 </r>
       <r>   26.6991    0.0000 </r>
       <r>   28.3648    0.0000 </r>
       <r>   29.0906    0.0000 </r>
       <r>   29.6155    0.0000 </r>
       <r>   34.9396    0.0000 </r>
       <r>   39.1576    0.0000 </r>
       <r>   42.4652    0.0000 </r>
       <r>   48.5221    0.0000 </r>
       <r>   48.5461    0.0000 </r>
       <r>   51.5024    0.0000 </r>
       <r>   52.5643    0.0000 </r>
      </set>
      <set comment="kpoint 52">
       <r>    0.9797    1.0000 </r>
       <r>    8.5305    1.0000 </r>
       <r>    9.3635    1.0000 </r>
       <r>   16.5223    0.0000 </r>
       <r>   19.3850    0.0000 </r>
       <r>   26.3065    0.0000 </r>
       <r>   27.0232    0.0000 </r>
       <r>   27.6432    0.0000 </r>
       <r>   30.0777    0.0000 </r>
       <r>   35.1545    0.0000 </r>
       <r>   38.8404    0.0000 </r>
       <r>   40.6387    0.0000 </r>
       <r>   47.0048    0.0000 </r>
       <r>   48.9240    0.0000 </r>
       <r>   50.7946    0.0000 </r>
       <r>   52.1393    0.0000 </r>
      </set>
      <set comment="kpoint 53">
       <r>   -0.1754    1.0000 </r>
       <r>   11.8861    0.0000 </r>
       <r>   13.9028    0.0000 </r>
       <r>   13.9029    0.0000 </r>
       <r>   15.3837    0.0000 </r>
       <r>   17.5834    0.0000 </r>
       <r>   32.2010    0.0000 </r>
       <r>   32.7098    0.0000 </r>
       <r>   32.7098    0.0000 </r>
       <r>   39.6966    0.0000 </r>
       <r>   41.7412    0.0000 </r>
       <r>   41.7412    0.0000 </r>
       <r>   41.9145    0.0000 </r>
       <r>   42.6804    0.0000 </r>
       <r>   48.1680    0.0000 </r>
       <r>   48.2767    0.0000 </r>
      </set>
      <set comment="kpoint 54">
       <r>    0.7783    1.0000 </r>
       <r>   10.4551    0.0000 </r>
       <r>   12.1650    0.0000 </r>
       <r>   13.6414    0.0000 </r>
       <r>   15.8133    0.0000 </r>
       <r>   18.0289    0.0000 </r>
       <r>   31.6893    0.0000 </r>
       <r>   33.2800    0.0000 </r>
       <r>   34.5050    0.0000 </r>
       <r>   39.7339    0.0000 </r>
       <r>   43.1014    0.0000 </r>
       <r>   43.3295    0.0000 </r>
       <r>   43.6357    0.0000 </r>
       <r>   45.0420    0.0000 </r>
       <r>   45.3054    0.0000 </r>
       <r>   47.5885    0.0000 </r>
      </set>
      <set comment="kpoint 55">
       <r>    1.9717    1.0000 </r>
       <r>    9.1538    1.0000 </r>
       <r>    9.9936    0.0197 </r>
       <r>   13.6020    0.0000 </r>
       <r>   16.0532    0.0000 </r>
       <r>   19.8400    0.0000 </r>
       <r>   30.8858    0.0000 </r>
       <r>   33.0846    0.0000 </r>
       <r>   35.4188    0.0000 </r>
       <r>   39.2736    0.0000 </r>
       <r>   43.1618    0.0000 </r>
       <r>   43.4953    0.0000 </r>
       <r>   45.6401    0.0000 </r>
       <r>   45.7513    0.0000 </r>
       <r>   46.1940    0.0000 </r>
       <r>   50.3782    0.0000 </r>
      </set>
      <set comment="kpoint 56">
       <r>    3.3918    1.0000 </r>
       <r>    7.5459    1.0000 </r>
       <r>    8.4808    1.0000 </r>
       <r>   13.7843    0.0000 </r>
       <r>   16.3228    0.0000 </r>
       <r>   22.1247    0.0000 </r>
       <r>   30.1028    0.0000 </r>
       <r>   32.3993    0.0000 </r>
       <r>   34.2067    0.0000 </r>
       <r>   38.5622    0.0000 </r>
       <r>   42.0626    0.0000 </r>
       <r>   44.3336    0.0000 </r>
       <r>   46.6978    0.0000 </r>
       <r>   47.7902    0.0000 </r>
       <r>   48.6446    0.0000 </r>
       <r>   50.5902    0.0000 </r>
      </set>
      <set comment="kpoint 57">
       <r>    4.9441    1.0000 </r>
       <r>    5.7532    1.0000 </r>
       <r>    7.6810    1.0000 </r>
       <r>   14.1875    0.0000 </r>
       <r>   16.7938    0.0000 </r>
       <r>   24.6345    0.0000 </r>
       <r>   29.4484    0.0000 </r>
       <r>   31.4262    0.0000 </r>
       <r>   31.9293    0.0000 </r>
       <r>   37.3544    0.0000 </r>
       <r>   41.6375    0.0000 </r>
       <r>   45.1711    0.0000 </r>
       <r>   46.4448    0.0000 </r>
       <r>   49.3037    0.0000 </r>
       <r>   50.0500    0.0000 </r>
       <r>   50.8153    0.0000 </r>
      </set>
      <set comment="kpoint 58">
       <r>    3.9043    1.0000 </r>
       <r>    6.6161    1.0000 </r>
       <r>    7.4919    1.0000 </r>
       <r>   14.8078    0.0000 </r>
       <r>   17.4887    0.0000 </r>
       <r>   27.1468    0.0000 </r>
       <r>   28.6489    0.0000 </r>
       <r>   29.8060    0.0000 </r>
       <r>   30.1642    0.0000 </r>
       <r>   36.0790    0.0000 </r>
       <r>   41.7312    0.0000 </r>
       <r>   42.0347    0.0000 </r>
       <r>   48.4065    0.0000 </r>
       <r>   50.3909    0.0000 </r>
       <r>   50.4205    0.0000 </r>
       <r>   51.2910    0.0000 </r>
      </set>
      <set comment="kpoint 59">
       <r>    1.6450    1.0000 </r>
       <r>    8.9623    1.0000 </r>
       <r>   13.3070    0.0000 </r>
       <r>   13.3071    0.0000 </r>
       <r>   14.7175    0.0000 </r>
       <r>   16.9172    0.0000 </r>
       <r>   33.4826    0.0000 </r>
       <r>   34.6611    0.0000 </r>
       <r>   34.6612    0.0000 </r>
       <r>   41.7961    0.0000 </r>
       <r>   43.4995    0.0000 </r>
       <r>   43.4996    0.0000 </r>
       <r>   44.2324    0.0000 </r>
       <r>   45.5738    0.0000 </r>
       <r>   46.3054    0.0000 </r>
       <r>   47.5533    0.0000 </r>
      </set>
      <set comment="kpoint 60">
       <r>    2.7477    1.0000 </r>
       <r>    7.6601    1.0000 </r>
       <r>   11.6768    0.0000 </r>
       <r>   13.1942    0.0000 </r>
       <r>   15.3172    0.0000 </r>
       <r>   17.5593    0.0000 </r>
       <r>   33.2121    0.0000 </r>
       <r>   34.9600    0.0000 </r>
       <r>   35.6272    0.0000 </r>
       <r>   41.9596    0.0000 </r>
       <r>   43.2128    0.0000 </r>
       <r>   43.2349    0.0000 </r>
       <r>   45.1055    0.0000 </r>
       <r>   45.4140    0.0000 </r>
       <r>   47.5673    0.0000 </r>
       <r>   49.2955    0.0000 </r>
      </set>
      <set comment="kpoint 61">
       <r>    4.0684    1.0000 </r>
       <r>    6.5927    1.0000 </r>
       <r>    9.5716    1.0000 </r>
       <r>   13.3041    0.0000 </r>
       <r>   15.7207    0.0000 </r>
       <r>   19.5434    0.0000 </r>
       <r>   32.4960    0.0000 </r>
       <r>   34.3128    0.0000 </r>
       <r>   34.8009    0.0000 </r>
       <r>   40.5637    0.0000 </r>
       <r>   43.9015    0.0000 </r>
       <r>   44.1490    0.0000 </r>
       <r>   45.7503    0.0000 </r>
       <r>   45.9771    0.0000 </r>
       <r>   49.0189    0.0000 </r>
       <r>   50.9483    0.0000 </r>
      </set>
      <set comment="kpoint 62">
       <r>    5.3356    1.0000 </r>
       <r>    5.9832    1.0000 </r>
       <r>    7.6560    1.0000 </r>
       <r>   13.6358    0.0000 </r>
       <r>   16.1628    0.0000 </r>
       <r>   21.9984    0.0000 </r>
       <r>   31.4446    0.0000 </r>
       <r>   32.9375    0.0000 </r>
       <r>   33.0653    0.0000 </r>
       <r>   38.9453    0.0000 </r>
       <r>   44.4995    0.0000 </r>
       <r>   44.6848    0.0000 </r>
       <r>   46.2213    0.0000 </r>
       <r>   46.6456    0.0000 </r>
       <r>   49.3910    0.0000 </r>
       <r>   50.9326    0.0000 </r>
      </set>
      <set comment="kpoint 63">
       <r>    3.7474    1.0000 </r>
       <r>    6.2908    1.0000 </r>
       <r>   13.0080    0.0000 </r>
       <r>   13.0081    0.0000 </r>
       <r>   14.3817    0.0000 </r>
       <r>   16.5930    0.0000 </r>
       <r>   34.4469    0.0000 </r>
       <r>   36.0137    0.0000 </r>
       <r>   36.0139    0.0000 </r>
       <r>   42.7919    0.0000 </r>
       <r>   42.7920    0.0000 </r>
       <r>   43.1812    0.0000 </r>
       <r>   43.9958    0.0000 </r>
       <r>   45.3675    0.0000 </r>
       <r>   50.6566    0.0000 </r>
       <r>   50.6567    0.0000 </r>
      </set>
      <set comment="kpoint 64">
       <r>    4.6947    1.0000 </r>
       <r>    5.4297    1.0000 </r>
       <r>   11.5176    0.0000 </r>
       <r>   13.0447    0.0000 </r>
       <r>   15.1520    0.0000 </r>
       <r>   17.4055    0.0000 </r>
       <r>   34.0907    0.0000 </r>
       <r>   35.7119    0.0000 </r>
       <r>   35.7194    0.0000 </r>
       <r>   41.9173    0.0000 </r>
       <r>   43.2177    0.0000 </r>
       <r>   43.8343    0.0000 </r>
       <r>   44.1857    0.0000 </r>
       <r>   45.7685    0.0000 </r>
       <r>   51.0167    0.0000 </r>
       <r>   51.3968    0.0000 </r>
      </set>
      <set comment="kpoint 65">
       <r>   -3.5312    1.0000 </r>
       <r>   16.0033    0.0000 </r>
       <r>   16.3354    0.0000 </r>
       <r>   20.0704    0.0000 </r>
       <r>   20.9478    0.0000 </r>
       <r>   23.9105    0.0000 </r>
       <r>   25.1549    0.0000 </r>
       <r>   25.5110    0.0000 </r>
       <r>   28.1799    0.0000 </r>
       <r>   31.7979    0.0000 </r>
       <r>   32.5684    0.0000 </r>
       <r>   36.2821    0.0000 </r>
       <r>   37.2021    0.0000 </r>
       <r>   39.7530    0.0000 </r>
       <r>   46.7079    0.0000 </r>
       <r>   54.7142    0.0000 </r>
      </set>
      <set comment="kpoint 66">
       <r>   -2.8983    1.0000 </r>
       <r>   13.4248    0.0000 </r>
       <r>   15.6375    0.0000 </r>
       <r>   19.4736    0.0000 </r>
       <r>   21.3711    0.0000 </r>
       <r>   23.3899    0.0000 </r>
       <r>   25.3987    0.0000 </r>
       <r>   25.6008    0.0000 </r>
       <r>   28.4042    0.0000 </r>
       <r>   32.1524    0.0000 </r>
       <r>   34.2182    0.0000 </r>
       <r>   38.3199    0.0000 </r>
       <r>   39.0335    0.0000 </r>
       <r>   42.3229    0.0000 </r>
       <r>   49.2792    0.0000 </r>
       <r>   51.0221    0.0000 </r>
      </set>
      <set comment="kpoint 67">
       <r>   -2.0156    1.0000 </r>
       <r>   10.7949    0.0000 </r>
       <r>   15.2797    0.0000 </r>
       <r>   18.6360    0.0000 </r>
       <r>   20.9437    0.0000 </r>
       <r>   23.8983    0.0000 </r>
       <r>   24.8555    0.0000 </r>
       <r>   26.0275    0.0000 </r>
       <r>   29.5695    0.0000 </r>
       <r>   31.3621    0.0000 </r>
       <r>   36.5758    0.0000 </r>
       <r>   41.0473    0.0000 </r>
       <r>   41.8975    0.0000 </r>
       <r>   45.1792    0.0000 </r>
       <r>   47.6037    0.0000 </r>
       <r>   52.0190    0.0000 </r>
      </set>
      <set comment="kpoint 68">
       <r>   -0.8871    1.0000 </r>
       <r>    8.3253    1.0000 </r>
       <r>   15.1475    0.0000 </r>
       <r>   17.7421    0.0000 </r>
       <r>   20.6072    0.0000 </r>
       <r>   23.2008    0.0000 </r>
       <r>   25.0455    0.0000 </r>
       <r>   27.4278    0.0000 </r>
       <r>   29.7558    0.0000 </r>
       <r>   31.9464    0.0000 </r>
       <r>   38.8022    0.0000 </r>
       <r>   42.7401    0.0000 </r>
       <r>   45.2389    0.0000 </r>
       <r>   46.0557    0.0000 </r>
       <r>   47.0205    0.0000 </r>
       <r>   50.3998    0.0000 </r>
      </set>
      <set comment="kpoint 69">
       <r>    0.4796    1.0000 </r>
       <r>    6.0550    1.0000 </r>
       <r>   15.2220    0.0000 </r>
       <r>   16.9177    0.0000 </r>
       <r>   20.5405    0.0000 </r>
       <r>   22.3511    0.0000 </r>
       <r>   25.1998    0.0000 </r>
       <r>   28.7920    0.0000 </r>
       <r>   29.7556    0.0000 </r>
       <r>   33.3430    0.0000 </r>
       <r>   40.5136    0.0000 </r>
       <r>   41.5106    0.0000 </r>
       <r>   44.9226    0.0000 </r>
       <r>   47.9076    0.0000 </r>
       <r>   49.7211    0.0000 </r>
       <r>   52.3093    0.0000 </r>
      </set>
      <set comment="kpoint 70">
       <r>    2.0479    1.0000 </r>
       <r>    4.0317    1.0000 </r>
       <r>   15.4419    0.0000 </r>
       <r>   16.3044    0.0000 </r>
       <r>   20.6453    0.0000 </r>
       <r>   21.7775    0.0000 </r>
       <r>   25.2852    0.0000 </r>
       <r>   28.5310    0.0000 </r>
       <r>   31.6000    0.0000 </r>
       <r>   33.5675    0.0000 </r>
       <r>   40.4616    0.0000 </r>
       <r>   41.6929    0.0000 </r>
       <r>   43.2586    0.0000 </r>
       <r>   50.3895    0.0000 </r>
       <r>   51.5679    0.0000 </r>
       <r>   53.0492    0.0000 </r>
      </set>
      <set comment="kpoint 71">
       <r>   -2.6874    1.0000 </r>
       <r>   14.4698    0.0000 </r>
       <r>   14.8822    0.0000 </r>
       <r>   18.1535    0.0000 </r>
       <r>   19.4847    0.0000 </r>
       <r>   21.3099    0.0000 </r>
       <r>   27.1029    0.0000 </r>
       <r>   27.7228    0.0000 </r>
       <r>   29.7367    0.0000 </r>
       <r>   33.9538    0.0000 </r>
       <r>   34.5319    0.0000 </r>
       <r>   37.9402    0.0000 </r>
       <r>   38.9828    0.0000 </r>
       <r>   41.1988    0.0000 </r>
       <r>   51.0726    0.0000 </r>
       <r>   51.1478    0.0000 </r>
      </set>
      <set comment="kpoint 72">
       <r>   -1.8892    1.0000 </r>
       <r>   12.0330    0.0000 </r>
       <r>   14.2888    0.0000 </r>
       <r>   17.0546    0.0000 </r>
       <r>   19.6902    0.0000 </r>
       <r>   21.9356    0.0000 </r>
       <r>   26.3987    0.0000 </r>
       <r>   28.1798    0.0000 </r>
       <r>   30.7864    0.0000 </r>
       <r>   33.4966    0.0000 </r>
       <r>   36.7520    0.0000 </r>
       <r>   40.2955    0.0000 </r>
       <r>   41.2717    0.0000 </r>
       <r>   43.8227    0.0000 </r>
       <r>   47.6466    0.0000 </r>
       <r>   51.9740    0.0000 </r>
      </set>
      <set comment="kpoint 73">
       <r>   -0.8440    1.0000 </r>
       <r>    9.5350    1.0000 </r>
       <r>   14.0634    0.0000 </r>
       <r>   15.9154    0.0000 </r>
       <r>   19.5285    0.0000 </r>
       <r>   23.5476    0.0000 </r>
       <r>   25.5098    0.0000 </r>
       <r>   28.3428    0.0000 </r>
       <r>   31.9879    0.0000 </r>
       <r>   32.9624    0.0000 </r>
       <r>   39.1677    0.0000 </r>
       <r>   42.4128    0.0000 </r>
       <r>   44.4864    0.0000 </r>
       <r>   45.0154    0.0000 </r>
       <r>   46.5156    0.0000 </r>
       <r>   49.7943    0.0000 </r>
      </set>
      <set comment="kpoint 74">
       <r>    0.4419    1.0000 </r>
       <r>    7.2077    1.0000 </r>
       <r>   14.0033    0.0000 </r>
       <r>   14.9719    0.0000 </r>
       <r>   19.5359    0.0000 </r>
       <r>   24.1305    0.0000 </r>
       <r>   25.8160    0.0000 </r>
       <r>   28.5679    0.0000 </r>
       <r>   31.6300    0.0000 </r>
       <r>   33.8827    0.0000 </r>
       <r>   40.9026    0.0000 </r>
       <r>   42.0466    0.0000 </r>
       <r>   45.2447    0.0000 </r>
       <r>   46.4717    0.0000 </r>
       <r>   48.3492    0.0000 </r>
       <r>   51.5968    0.0000 </r>
      </set>
      <set comment="kpoint 75">
       <r>    1.9516    1.0000 </r>
       <r>    5.0975    1.0000 </r>
       <r>   13.7535    0.0000 </r>
       <r>   14.6345    0.0000 </r>
       <r>   19.7707    0.0000 </r>
       <r>   23.4947    0.0000 </r>
       <r>   26.9324    0.0000 </r>
       <r>   29.3886    0.0000 </r>
       <r>   31.2718    0.0000 </r>
       <r>   33.7517    0.0000 </r>
       <r>   40.9594    0.0000 </r>
       <r>   41.9300    0.0000 </r>
       <r>   44.6376    0.0000 </r>
       <r>   49.3427    0.0000 </r>
       <r>   51.6365    0.0000 </r>
       <r>   52.7974    0.0000 </r>
      </set>
      <set comment="kpoint 76">
       <r>    2.9805    1.0000 </r>
       <r>    3.9170    1.0000 </r>
       <r>   13.2332    0.0000 </r>
       <r>   14.9968    0.0000 </r>
       <r>   20.2191    0.0000 </r>
       <r>   22.9434    0.0000 </r>
       <r>   27.1235    0.0000 </r>
       <r>   30.5103    0.0000 </r>
       <r>   31.3036    0.0000 </r>
       <r>   32.4820    0.0000 </r>
       <r>   40.0484    0.0000 </r>
       <r>   42.5965    0.0000 </r>
       <r>   45.1405    0.0000 </r>
       <r>   50.1206    0.0000 </r>
       <r>   52.4742    0.0000 </r>
       <r>   52.6328    0.0000 </r>
      </set>
      <set comment="kpoint 77">
       <r>    1.4258    1.0000 </r>
       <r>    5.7721    1.0000 </r>
       <r>   12.8494    0.0000 </r>
       <r>   15.6624    0.0000 </r>
       <r>   20.8470    0.0000 </r>
       <r>   22.6372    0.0000 </r>
       <r>   26.8718    0.0000 </r>
       <r>   29.3428    0.0000 </r>
       <r>   31.6025    0.0000 </r>
       <r>   32.6032    0.0000 </r>
       <r>   39.2727    0.0000 </r>
       <r>   43.2323    0.0000 </r>
       <r>   45.6775    0.0000 </r>
       <r>   47.4471    0.0000 </r>
       <r>   51.2760    0.0000 </r>
       <r>   53.2673    0.0000 </r>
      </set>
      <set comment="kpoint 78">
       <r>   -0.0135    1.0000 </r>
       <r>    7.9568    1.0000 </r>
       <r>   12.6782    0.0000 </r>
       <r>   16.5453    0.0000 </r>
       <r>   21.5403    0.0000 </r>
       <r>   22.6633    0.0000 </r>
       <r>   26.0809    0.0000 </r>
       <r>   27.8105    0.0000 </r>
       <r>   31.2677    0.0000 </r>
       <r>   32.9386    0.0000 </r>
       <r>   39.5064    0.0000 </r>
       <r>   42.1049    0.0000 </r>
       <r>   44.7372    0.0000 </r>
       <r>   47.4355    0.0000 </r>
       <r>   48.1998    0.0000 </r>
       <r>   52.1159    0.0000 </r>
      </set>
      <set comment="kpoint 79">
       <r>   -1.2200    1.0000 </r>
       <r>   10.3341    0.0000 </r>
       <r>   12.7457    0.0000 </r>
       <r>   17.6054    0.0000 </r>
       <r>   22.0684    0.0000 </r>
       <r>   23.0983    0.0000 </r>
       <r>   24.6969    0.0000 </r>
       <r>   27.1453    0.0000 </r>
       <r>   29.9989    0.0000 </r>
       <r>   33.6729    0.0000 </r>
       <r>   37.5056    0.0000 </r>
       <r>   42.1501    0.0000 </r>
       <r>   43.5353    0.0000 </r>
       <r>   44.4948    0.0000 </r>
       <r>   47.8503    0.0000 </r>
       <r>   52.1986    0.0000 </r>
      </set>
      <set comment="kpoint 80">
       <r>   -2.1831    1.0000 </r>
       <r>   12.6363    0.0000 </r>
[...]
       <r>   38.2633    0.0000 </r>
       <r>   42.3151    0.0000 </r>
       <r>   42.6623    0.0000 </r>
       <r>   46.2601    0.0000 </r>
       <r>   48.3834    0.0000 </r>
       <r>   49.9365    0.0000 </r>
       <r>   53.0797    0.0000 </r>
      </set>
      <set comment="kpoint 115">
       <r>    4.3892    1.0000 </r>
       <r>    6.8965    1.0000 </r>
       <r>    9.4815    1.0000 </r>
       <r>   10.3925    0.0000 </r>
       <r>   19.1415    0.0000 </r>
       <r>   20.2418    0.0000 </r>
       <r>   30.1283    0.0000 </r>
       <r>   31.9831    0.0000 </r>
       <r>   36.0672    0.0000 </r>
       <r>   41.8718    0.0000 </r>
       <r>   43.2505    0.0000 </r>
       <r>   43.9304    0.0000 </r>
       <r>   44.9616    0.0000 </r>
       <r>   47.2353    0.0000 </r>
       <r>   47.6029    0.0000 </r>
       <r>   51.7146    0.0000 </r>
      </set>
      <set comment="kpoint 116">
       <r>    5.6557    1.0000 </r>
       <r>    6.2969    1.0000 </r>
       <r>    7.9100    1.0000 </r>
       <r>   10.3934    0.0000 </r>
       <r>   19.9355    0.0000 </r>
       <r>   22.2845    0.0000 </r>
       <r>   29.2179    0.0000 </r>
       <r>   29.7321    0.0000 </r>
       <r>   35.9267    0.0000 </r>
       <r>   41.1099    0.0000 </r>
       <r>   44.0852    0.0000 </r>
       <r>   44.4988    0.0000 </r>
       <r>   45.6662    0.0000 </r>
       <r>   46.1083    0.0000 </r>
       <r>   48.3890    0.0000 </r>
       <r>   50.0248    0.0000 </r>
      </set>
      <set comment="kpoint 117">
       <r>    3.1098    1.0000 </r>
       <r>    8.2121    1.0000 </r>
       <r>    8.9115    1.0000 </r>
       <r>   10.6323    0.0000 </r>
       <r>   22.5811    0.0000 </r>
       <r>   22.8359    0.0000 </r>
       <r>   25.2987    0.0000 </r>
       <r>   30.8636    0.0000 </r>
       <r>   34.1565    0.0000 </r>
       <r>   38.9463    0.0000 </r>
       <r>   41.7637    0.0000 </r>
       <r>   42.3655    0.0000 </r>
       <r>   45.8200    0.0000 </r>
       <r>   46.9337    0.0000 </r>
       <r>   50.3538    0.0000 </r>
       <r>   53.6051    0.0000 </r>
      </set>
      <set comment="kpoint 118">
       <r>    4.6606    1.0000 </r>
       <r>    6.5308    1.0000 </r>
       <r>    8.8572    1.0000 </r>
       <r>    9.9086    0.1959 </r>
       <r>   22.8414    0.0000 </r>
       <r>   24.0293    0.0000 </r>
       <r>   25.7282    0.0000 </r>
       <r>   28.6274    0.0000 </r>
       <r>   34.9243    0.0000 </r>
       <r>   39.6430    0.0000 </r>
       <r>   42.3400    0.0000 </r>
       <r>   44.3191    0.0000 </r>
       <r>   45.0220    0.0000 </r>
       <r>   47.6561    0.0000 </r>
       <r>   48.7254    0.0000 </r>
       <r>   52.3429    0.0000 </r>
      </set>
      <set comment="kpoint 119">
       <r>    5.1810    1.0000 </r>
       <r>    7.5358    1.0000 </r>
       <r>    7.8939    1.0000 </r>
       <r>    9.0515    1.0000 </r>
       <r>   22.2946    0.0000 </r>
       <r>   22.8139    0.0000 </r>
       <r>   26.8437    0.0000 </r>
       <r>   29.0294    0.0000 </r>
       <r>   36.1126    0.0000 </r>
       <r>   41.8470    0.0000 </r>
       <r>   43.5544    0.0000 </r>
       <r>   43.8090    0.0000 </r>
       <r>   45.8372    0.0000 </r>
       <r>   46.1185    0.0000 </r>
       <r>   47.4985    0.0000 </r>
       <r>   50.6183    0.0000 </r>
      </set>
      <set comment="kpoint 120">
       <r>    6.2103    1.0000 </r>
       <r>    6.6163    1.0000 </r>
       <r>    7.4061    1.0000 </r>
       <r>    9.1237    1.0000 </r>
       <r>   22.9401    0.0000 </r>
       <r>   24.7598    0.0000 </r>
       <r>   25.6792    0.0000 </r>
       <r>   27.4664    0.0000 </r>
       <r>   36.0554    0.0000 </r>
       <r>   41.5036    0.0000 </r>
       <r>   43.7197    0.0000 </r>
       <r>   44.4635    0.0000 </r>
       <r>   45.4439    0.0000 </r>
       <r>   46.5256    0.0000 </r>
       <r>   47.1750    0.0000 </r>
       <r>   50.0692    0.0000 </r>
      </set>
     </set>
    </set>
   </array>
  </eigenvalues>
  <separator name="orbital magnetization" >
   <v name="MAGDIPOLOUT">      0.00000000      0.00000000      0.00000000</v>
  </separator>
  <dos>
   <i name="efermi">      9.84801737 </i>
   <total>
    <array>
     <dimension dim="1">gridpoints</dimension>
     <dimension dim="2">spin</dimension>
     <field>energy</field>
     <field>total</field>
     <field>integrated</field>
     <set>
      <set comment="spin 1">
       <r>    -7.7386     0.0000     0.0000 </r>
       <r>    -7.4922     0.0000     0.0000 </r>
       <r>    -7.2458     0.0000     0.0000 </r>
       <r>    -6.9994     0.0000     0.0000 </r>
       <r>    -6.7530     0.0000     0.0000 </r>
       <r>    -6.5066     0.0000     0.0000 </r>
       <r>    -6.2602     0.0000     0.0000 </r>
       <r>    -6.0138     0.0000     0.0000 </r>
       <r>    -5.7674     0.0000     0.0000 </r>
       <r>    -5.5210     0.0000     0.0000 </r>
       <r>    -5.2746     0.0000     0.0000 </r>
       <r>    -5.0282     0.0000     0.0000 </r>
       <r>    -4.7818     0.0000     0.0000 </r>
       <r>    -4.5354     0.0000     0.0000 </r>
       <r>    -4.2890     0.0097     0.0024 </r>
       <r>    -4.0426     0.0421     0.0128 </r>
       <r>    -3.7962     0.0856     0.0339 </r>
       <r>    -3.5498     0.0782     0.0531 </r>
       <r>    -3.3035     0.1151     0.0815 </r>
       <r>    -3.0571     0.0863     0.1027 </r>
       <r>    -2.8107     0.1771     0.1464 </r>
       <r>    -2.5643     0.1275     0.1778 </r>
       <r>    -2.3179     0.1002     0.2025 </r>
       <r>    -2.0715     0.1874     0.2487 </r>
       <r>    -1.8251     0.2366     0.3069 </r>
       <r>    -1.5787     0.0861     0.3281 </r>
       <r>    -1.3323     0.1901     0.3750 </r>
       <r>    -1.0859     0.2211     0.4295 </r>
       <r>    -0.8395     0.2483     0.4907 </r>
       <r>    -0.5931     0.1819     0.5355 </r>
       <r>    -0.3467     0.1255     0.5664 </r>
       <r>    -0.1003     0.2687     0.6326 </r>
       <r>     0.1461     0.3239     0.7124 </r>
       <r>     0.3925     0.1440     0.7479 </r>
       <r>     0.6389     0.2933     0.8201 </r>
       <r>     0.8853     0.1771     0.8638 </r>
       <r>     1.1317     0.2725     0.9309 </r>
       <r>     1.3781     0.3145     1.0084 </r>
       <r>     1.6245     0.2915     1.0802 </r>
       <r>     1.8709     0.2276     1.1363 </r>
       <r>     2.1173     0.3442     1.2211 </r>
       <r>     2.3637     0.1796     1.2654 </r>
       <r>     2.6101     0.3130     1.3425 </r>
       <r>     2.8565     0.3752     1.4350 </r>
       <r>     3.1029     0.3678     1.5256 </r>
       <r>     3.3493     0.2597     1.5896 </r>
       <r>     3.5957     0.1282     1.6212 </r>
       <r>     3.8421     0.2880     1.6921 </r>
       <r>     4.0885     0.5507     1.8278 </r>
       <r>     4.3349     0.2330     1.8852 </r>
       <r>     4.5813     0.3223     1.9647 </r>
       <r>     4.8277     0.3701     2.0559 </r>
       <r>     5.0741     0.3227     2.1354 </r>
       <r>     5.3205     0.4068     2.2356 </r>
       <r>     5.5669     0.1636     2.2759 </r>
       <r>     5.8133     0.3969     2.3737 </r>
       <r>     6.0597     0.5023     2.4975 </r>
       <r>     6.3061     0.2855     2.5679 </r>
       <r>     6.5525     0.4116     2.6693 </r>
       <r>     6.7989     0.3727     2.7611 </r>
       <r>     7.0453     0.4921     2.8824 </r>
       <r>     7.2917     0.1999     2.9316 </r>
       <r>     7.5381     0.2118     2.9838 </r>
       <r>     7.7845     0.4283     3.0893 </r>
       <r>     8.0309     0.8133     3.2897 </r>
       <r>     8.2773     0.1993     3.3388 </r>
       <r>     8.5237     0.4384     3.4469 </r>
       <r>     8.7701     0.2648     3.5121 </r>
       <r>     9.0165     0.4864     3.6320 </r>
       <r>     9.2629     0.4335     3.7388 </r>
       <r>     9.5093     0.3169     3.8169 </r>
       <r>     9.7557     0.5015     3.9404 </r>
       <r>    10.0021     0.5484     4.0755 </r>
       <r>    10.2485     0.2368     4.1339 </r>
       <r>    10.4949     0.6261     4.2882 </r>
       <r>    10.7413     0.4690     4.4037 </r>
       <r>    10.9877     0.5121     4.5299 </r>
       <r>    11.2341     0.2801     4.5989 </r>
       <r>    11.4805     0.3918     4.6954 </r>
       <r>    11.7269     0.5604     4.8335 </r>
       <r>    11.9733     0.6605     4.9963 </r>
       <r>    12.2197     0.4332     5.1030 </r>
       <r>    12.4661     0.4325     5.2096 </r>
       <r>    12.7125     0.6129     5.3606 </r>
       <r>    12.9589     0.5535     5.4970 </r>
       <r>    13.2053     0.5086     5.6223 </r>
       <r>    13.4517     0.5012     5.7458 </r>
       <r>    13.6981     0.6664     5.9100 </r>
       <r>    13.9445     0.4614     6.0237 </r>
       <r>    14.1909     0.6581     6.1858 </r>
       <r>    14.4373     0.4473     6.2961 </r>
       <r>    14.6837     0.4559     6.4084 </r>
       <r>    14.9301     0.2860     6.4789 </r>
       <r>    15.1765     0.5785     6.6214 </r>
       <r>    15.4229     0.7294     6.8011 </r>
       <r>    15.6693     0.3592     6.8896 </r>
       <r>    15.9157     0.3910     6.9860 </r>
       <r>    16.1621     0.4411     7.0947 </r>
       <r>    16.4085     0.4935     7.2162 </r>
       <r>    16.6549     0.5094     7.3418 </r>
       <r>    16.9013     0.4850     7.4613 </r>
       <r>    17.1477     0.5329     7.5926 </r>
       <r>    17.3941     0.4536     7.7044 </r>
       <r>    17.6405     0.4477     7.8147 </r>
       <r>    17.8869     0.8558     8.0255 </r>
       <r>    18.1333     0.4024     8.1247 </r>
       <r>    18.3797     0.5356     8.2566 </r>
       <r>    18.6261     0.4660     8.3715 </r>
       <r>    18.8725     0.7191     8.5487 </r>
       <r>    19.1189     0.2731     8.6159 </r>
       <r>    19.3653     0.4045     8.7156 </r>
       <r>    19.6117     0.6601     8.8783 </r>
       <r>    19.8581     0.8261     9.0818 </r>
       <r>    20.1045     0.4900     9.2025 </r>
       <r>    20.3509     0.5199     9.3306 </r>
       <r>    20.5973     0.6499     9.4908 </r>
       <r>    20.8437     0.6636     9.6543 </r>
       <r>    21.0901     0.5451     9.7886 </r>
       <r>    21.3365     0.6348     9.9450 </r>
       <r>    21.5829     0.5471    10.0798 </r>
       <r>    21.8293     0.3144    10.1573 </r>
       <r>    22.0757     0.6809    10.3251 </r>
       <r>    22.3221     0.4829    10.4441 </r>
       <r>    22.5685     0.5323    10.5752 </r>
       <r>    22.8149     0.8939    10.7954 </r>
       <r>    23.0613     0.8580    11.0068 </r>
       <r>    23.3077     0.6903    11.1769 </r>
       <r>    23.5541     0.5360    11.3090 </r>
       <r>    23.8005     0.4360    11.4164 </r>
       <r>    24.0469     0.7165    11.5930 </r>
       <r>    24.2933     0.4970    11.7154 </r>
       <r>    24.5397     0.3928    11.8122 </r>
       <r>    24.7861     1.1640    12.0990 </r>
       <r>    25.0325     0.7239    12.2774 </r>
       <r>    25.2789     0.5984    12.4248 </r>
       <r>    25.5253     0.6314    12.5804 </r>
       <r>    25.7717     0.5545    12.7170 </r>
       <r>    26.0181     0.7662    12.9058 </r>
       <r>    26.2645     0.5064    13.0306 </r>
       <r>    26.5109     0.3843    13.1253 </r>
       <r>    26.7573     0.7000    13.2978 </r>
       <r>    27.0037     0.9249    13.5257 </r>
       <r>    27.2501     0.7105    13.7008 </r>
       <r>    27.4965     0.3467    13.7862 </r>
       <r>    27.7429     0.8845    14.0041 </r>
       <r>    27.9893     0.4425    14.1132 </r>
       <r>    28.2357     0.4403    14.2217 </r>
       <r>    28.4821     0.8813    14.4388 </r>
       <r>    28.7285     0.5778    14.5812 </r>
       <r>    28.9749     0.4406    14.6898 </r>
       <r>    29.2213     0.9764    14.9303 </r>
       <r>    29.4677     0.7954    15.1263 </r>
       <r>    29.7141     0.8435    15.3342 </r>
       <r>    29.9605     0.7085    15.5087 </r>
       <r>    30.2069     0.8944    15.7291 </r>
       <r>    30.4533     0.4327    15.8357 </r>
       <r>    30.6997     0.5552    15.9725 </r>
       <r>    30.9461     0.7933    16.1680 </r>
       <r>    31.1925     0.3453    16.2530 </r>
       <r>    31.4389     1.0251    16.5056 </r>
       <r>    31.6853     0.6985    16.6777 </r>
       <r>    31.9317     0.7883    16.8720 </r>
       <r>    32.1781     0.7451    17.0556 </r>
       <r>    32.4245     0.6650    17.2194 </r>
       <r>    32.6709     0.9401    17.4511 </r>
       <r>    32.9173     0.5481    17.5861 </r>
       <r>    33.1637     0.6131    17.7372 </r>
       <r>    33.4101     0.8084    17.9364 </r>
       <r>    33.6565     0.8518    18.1463 </r>
       <r>    33.9029     0.6892    18.3161 </r>
       <r>    34.1493     0.5121    18.4423 </r>
       <r>    34.3957     0.8068    18.6411 </r>
       <r>    34.6421     0.7999    18.8382 </r>
       <r>    34.8885     0.7602    19.0255 </r>
       <r>    35.1349     0.6100    19.1758 </r>
       <r>    35.3813     0.4476    19.2861 </r>
       <r>    35.6277     0.2938    19.3585 </r>
       <r>    35.8741     0.4313    19.4648 </r>
       <r>    36.1205     0.3972    19.5626 </r>
       <r>    36.3669     0.3192    19.6413 </r>
       <r>    36.6133     0.3398    19.7250 </r>
       <r>    36.8597     0.3690    19.8160 </r>
       <r>    37.1061     0.3400    19.8997 </r>
       <r>    37.3525     0.5139    20.0263 </r>
       <r>    37.5989     0.3312    20.1079 </r>
       <r>    37.8453     0.3385    20.1913 </r>
       <r>    38.0917     0.2674    20.2572 </r>
       <r>    38.3381     0.3464    20.3426 </r>
       <r>    38.5845     0.2570    20.4059 </r>
       <r>    38.8309     0.3746    20.4982 </r>
       <r>    39.0773     0.5158    20.6253 </r>
       <r>    39.3237     0.5899    20.7707 </r>
       <r>    39.5701     0.6746    20.9369 </r>
       <r>    39.8165     0.6694    21.1018 </r>
       <r>    40.0629     0.5701    21.2423 </r>
       <r>    40.3093     0.4988    21.3652 </r>
       <r>    40.5557     0.7894    21.5597 </r>
       <r>    40.8021     0.6462    21.7189 </r>
       <r>    41.0485     0.7597    21.9061 </r>
       <r>    41.2949     0.7570    22.0926 </r>
       <r>    41.5413     0.5054    22.2172 </r>
       <r>    41.7877     0.8720    22.4320 </r>
       <r>    42.0340     0.8112    22.6319 </r>
       <r>    42.2804     0.9889    22.8756 </r>
       <r>    42.5268     1.2670    23.1878 </r>
       <r>    42.7732     0.9806    23.4294 </r>
       <r>    43.0196     0.8456    23.6378 </r>
       <r>    43.2660     1.3293    23.9653 </r>
       <r>    43.5124     1.0297    24.2190 </r>
       <r>    43.7588     0.6451    24.3780 </r>
       <r>    44.0052     1.0594    24.6390 </r>
       <r>    44.2516     0.5234    24.7680 </r>
       <r>    44.4980     0.9096    24.9921 </r>
       <r>    44.7444     1.0231    25.2442 </r>
       <r>    44.9908     1.1071    25.5170 </r>
       <r>    45.2372     1.1274    25.7948 </r>
       <r>    45.4836     0.8322    25.9998 </r>
       <r>    45.7300     0.8391    26.2066 </r>
       <r>    45.9764     0.7728    26.3970 </r>
       <r>    46.2228     0.9512    26.6314 </r>
       <r>    46.4692     0.9130    26.8563 </r>
       <r>    46.7156     1.0850    27.1237 </r>
       <r>    46.9620     0.5699    27.2641 </r>
       <r>    47.2084     0.5655    27.4034 </r>
       <r>    47.4548     0.6251    27.5574 </r>
       <r>    47.7012     1.0208    27.8090 </r>
       <r>    47.9476     0.8457    28.0174 </r>
       <r>    48.1940     0.3902    28.1135 </r>
       <r>    48.4404     0.6242    28.2673 </r>
       <r>    48.6868     1.0484    28.5256 </r>
       <r>    48.9332     1.0047    28.7732 </r>
       <r>    49.1796     0.6459    28.9323 </r>
       <r>    49.4260     0.6953    29.1036 </r>
       <r>    49.6724     0.4688    29.2192 </r>
       <r>    49.9188     0.7259    29.3980 </r>
       <r>    50.1652     0.8601    29.6099 </r>
       <r>    50.4116     0.6888    29.7797 </r>
       <r>    50.6580     0.9804    30.0212 </r>
       <r>    50.9044     0.6483    30.1810 </r>
       <r>    51.1508     0.9754    30.4213 </r>
       <r>    51.3972     0.6267    30.5757 </r>
       <r>    51.6436     0.7152    30.7520 </r>
       <r>    51.8900     0.8763    30.9679 </r>
       <r>    52.1364     1.0179    31.2187 </r>
       <r>    52.3828     0.7090    31.3934 </r>
       <r>    52.6292     0.6092    31.5435 </r>
       <r>    52.8756     0.3558    31.6312 </r>
       <r>    53.1220     0.4555    31.7434 </r>
       <r>    53.3684     0.1887    31.7899 </r>
       <r>    53.6148     0.1954    31.8381 </r>
       <r>    53.8612     0.0776    31.8572 </r>
       <r>    54.1076     0.1060    31.8833 </r>
       <r>    54.3540     0.1889    31.9298 </r>
       <r>    54.6004     0.0204    31.9349 </r>
       <r>    54.8468     0.1051    31.9608 </r>
       <r>    55.0932     0.0029    31.9615 </r>
       <r>    55.3396     0.0000    31.9615 </r>
       <r>    55.5860     0.0000    31.9615 </r>
       <r>    55.8324     0.0000    31.9615 </r>
       <r>    56.0788     0.0000    31.9615 </r>
       <r>    56.3252     0.0000    31.9615 </r>
       <r>    56.5716     0.0000    31.9615 </r>
       <r>    56.8180     0.0000    31.9615 </r>
       <r>    57.0644     0.0000    31.9615 </r>
       <r>    57.3108     0.0000    31.9615 </r>
       <r>    57.5572     0.0005    31.9616 </r>
       <r>    57.8036     0.0139    31.9650 </r>
       <r>    58.0500     0.0585    31.9794 </r>
       <r>    58.2964     0.0192    31.9841 </r>
       <r>    58.5428     0.0260    31.9905 </r>
       <r>    58.7892     0.0023    31.9911 </r>
       <r>    59.0356     0.0000    31.9911 </r>
       <r>    59.2820     0.0000    31.9911 </r>
       <r>    59.5284     0.0000    31.9911 </r>
       <r>    59.7748     0.0000    31.9911 </r>
       <r>    60.0212     0.0000    31.9911 </r>
       <r>    60.2676     0.0000    31.9911 </r>
       <r>    60.5140     0.0000    31.9911 </r>
       <r>    60.7604     0.0000    31.9911 </r>
       <r>    61.0068     0.0013    31.9914 </r>
       <r>    61.2532     0.0130    31.9946 </r>
       <r>    61.4996     0.0151    31.9983 </r>
       <r>    61.7460     0.0044    31.9994 </r>
       <r>    61.9924     0.0000    31.9994 </r>
       <r>    62.2388     0.0000    31.9994 </r>
       <r>    62.4852     0.0000    31.9994 </r>
       <r>    62.7316     0.0002    31.9995 </r>
       <r>    62.9780     0.0021    32.0000 </r>
       <r>    63.2244     0.0000    32.0000 </r>
       <r>    63.4708     0.0000    32.0000 </r>
       <r>    63.7172     0.0000    32.0000 </r>
       <r>    63.9636     0.0000    32.0000 </r>
       <r>    64.2100     0.0000    32.0000 </r>
       <r>    64.4564     0.0000    32.0000 </r>
       <r>    64.7028     0.0000    32.0000 </r>
       <r>    64.9492     0.0000    32.0000 </r>
       <r>    65.1956     0.0000    32.0000 </r>
       <r>    65.4420     0.0000    32.0000 </r>
       <r>    65.6884     0.0000    32.0000 </r>
       <r>    65.9348     0.0000    32.0000 </r>
       <r>    66.1812     0.0000    32.0000 </r>
      </set>
     </set>
    </array>
   </total>
  </dos>
 </calculation>
 <structure name="finalpos" >
  <crystal>
   <varray name="basis" >
    <v>       1.95000000       1.95000000       0.00000000 </v>
    <v>       0.00000000       1.95000000       1.95000000 </v>
    <v>       1.95000000       0.00000000       1.95000000 </v>
   </varray>
   <i name="volume">     14.82975000 </i>
   <varray name="rec_basis" >
    <v>       0.25641026       0.25641026      -0.25641026 </v>
    <v>      -0.25641026       0.25641026       0.25641026 </v>
    <v>       0.25641026      -0.25641026       0.25641026 </v>
   </varray>
  </crystal>
  <varray name="positions" >
   <v>       0.00000000       0.00000000       0.00000000 </v>
  </varray>
 </structure>
</modeling>
